
    240 atoms
    360 bonds
    1 atom types
    1 bond types

    -20.000000 20.000000 xlo xhi
    -20.000000 20.000000 ylo yhi
    -20.000000 20.000000 zlo zhi

    Atoms 

    1 1 -6.694841 -4.420790 0.609430 1 
2 1 -6.753757 -5.796319 0.995931 1 
3 1 -7.500563 -5.792106 2.171724 1 
4 1 -8.120992 -4.555393 2.384470 1 
5 1 -7.663513 -3.702481 1.375124 1 
6 1 0.035755 -2.181136 -1.065746 1 
7 1 -0.974974 -2.990682 -1.368485 1 
8 1 -2.208079 -2.199446 -1.409193 1 
9 1 -1.820810 -0.946479 -1.030325 1 
10 1 -0.453968 -0.828436 -0.947422 1 
11 1 -0.413909 -9.306171 2.262035 1 
12 1 -1.805105 -9.327327 2.096274 1 
13 1 -2.228602 -8.641074 0.917053 1 
14 1 -1.024556 -8.106468 0.385162 1 
15 1 0.109716 -8.571742 1.150677 1 
16 1 -5.217583 -8.844991 8.435472 1 
17 1 -6.338906 -8.353306 7.687368 1 
18 1 -6.302044 -8.902634 6.387723 1 
19 1 -5.030314 -9.585685 6.316435 1 
20 1 -4.411799 -9.559919 7.608656 1 
21 1 -7.871945 -1.307022 9.036515 1 
22 1 -8.500329 -1.259605 7.756697 1 
23 1 -8.672727 -2.621308 7.370877 1 
24 1 -8.248777 -3.471253 8.441446 1 
25 1 -7.767346 -2.591875 9.479066 1 
26 1 -4.460928 2.743506 3.090841 1 
27 1 -5.093202 2.008122 2.033369 1 
28 1 -6.214479 1.381921 2.619016 1 
29 1 -6.370205 1.904836 3.898048 1 
30 1 -5.307826 2.766417 4.153841 1 
31 1 3.027090 -2.205920 10.833698 1 
32 1 3.818657 -2.991211 9.943047 1 
33 1 4.333381 -2.055209 9.003041 1 
34 1 3.751980 -0.800328 9.179462 1 
35 1 2.987521 -0.932484 10.293001 1 
36 1 -3.292406 -5.759349 12.293551 1 
37 1 -1.887898 -5.703798 12.339045 1 
38 1 -1.549679 -4.403446 12.632233 1 
39 1 -2.725261 -3.623694 12.693903 1 
40 1 -3.792235 -4.432308 12.485495 1 
41 1 1.679595 -9.451854 7.099971 1 
42 1 2.736768 -8.366613 7.394717 1 
43 1 2.531989 -7.994172 8.752394 1 
44 1 1.348630 -8.496948 9.196771 1 
45 1 0.863556 -9.406678 8.239755 1 
46 1 4.119974 -4.007207 1.920881 1 
47 1 4.715637 -3.084409 2.875493 1 
48 1 5.112943 -3.936873 3.999899 1 
49 1 4.760499 -5.251412 3.649255 1 
50 1 4.219072 -5.314155 2.320072 1 
51 1 0.808602 3.137832 3.704696 1 
52 1 1.387100 3.112470 4.973525 1 
53 1 2.515625 2.321397 5.019593 1 
54 1 2.749131 1.906424 3.647158 1 
55 1 1.650236 2.263063 2.929589 1 
56 1 -3.728386 1.974272 10.193786 1 
57 1 -2.623403 1.513628 10.967592 1 
58 1 -1.541002 2.100673 10.523153 1 
59 1 -1.853898 2.932521 9.339895 1 
60 1 -3.180448 2.910428 9.197837 1 
61 1 0.181658 2.447532 8.340595 1 
62 1 0.474511 1.502514 9.348096 1 
63 1 1.652378 0.728435 9.294391 1 
64 1 2.350300 0.855224 8.210101 1 
65 1 2.143254 1.825400 7.243300 1 
66 1 1.051812 2.611888 7.235558 1 
67 1 3.728368 -0.142934 4.591218 1 
68 1 3.393711 0.273026 5.866387 1 
69 1 3.888239 -0.450061 6.900751 1 
70 1 4.518966 -1.643771 6.773096 1 
71 1 4.710736 -2.205591 5.421587 1 
72 1 4.321555 -1.339109 4.388967 1 
73 1 4.073105 -5.579169 5.910547 1 
74 1 4.442232 -4.239393 6.191075 1 
75 1 4.329862 -3.913758 7.541543 1 
76 1 3.982341 -4.804631 8.497101 1 
77 1 3.670565 -6.096216 8.209825 1 
78 1 3.752622 -6.388676 6.866788 1 
79 1 0.969528 -6.533323 10.402189 1 
80 1 2.179556 -6.025839 9.963088 1 
81 1 2.592109 -4.838909 10.352626 1 
82 1 1.750887 -4.105993 11.111591 1 
83 1 0.510181 -4.605706 11.539317 1 
84 1 0.174998 -5.905489 11.340811 1 
85 1 -1.501349 -1.734289 11.877504 1 
86 1 -0.245599 -2.461610 12.066854 1 
87 1 0.800614 -1.921806 11.576487 1 
88 1 0.786040 -0.587544 11.072396 1 
89 1 -0.252311 0.213577 11.187020 1 
90 1 -1.394402 -0.382168 11.656013 1 
91 1 -2.158882 -6.152926 -0.128181 1 
92 1 -3.302061 -6.675363 0.377147 1 
93 1 -4.474176 -5.885746 0.402114 1 
94 1 -4.489574 -4.628367 -0.046291 1 
95 1 -3.314217 -4.026033 -0.386230 1 
96 1 -2.144103 -4.811254 -0.412240 1 
97 1 -3.963409 -0.657424 -0.152471 1 
98 1 -4.262397 -1.906222 -0.293835 1 
99 1 -5.353444 -2.521857 0.279492 1 
100 1 -6.287740 -1.703998 0.986811 1 
101 1 -5.934605 -0.479568 1.239815 1 
102 1 -4.809541 0.106178 0.665842 1 
103 1 -7.344468 -0.182417 4.474794 1 
104 1 -7.260358 -0.604763 3.194679 1 
105 1 -7.651799 -1.893483 2.879288 1 
106 1 -8.167862 -2.721662 3.816551 1 
107 1 -8.223223 -2.243048 5.189761 1 
108 1 -7.872185 -0.975564 5.495220 1 
109 1 -7.852933 -5.339198 7.004274 1 
110 1 -8.045032 -4.404399 5.961231 1 
111 1 -8.052889 -4.891384 4.679359 1 
112 1 -7.499281 -6.154581 4.514955 1 
113 1 -7.290150 -6.994146 5.543960 1 
114 1 -7.422759 -6.505059 6.867808 1 
115 1 -4.737516 -9.088945 4.017451 1 
116 1 -5.868268 -8.210026 4.194156 1 
117 1 -6.090974 -7.397888 3.141713 1 
118 1 -5.288591 -7.366532 2.048685 1 
119 1 -4.142027 -8.135263 2.016654 1 
120 1 -3.840855 -8.900256 3.061007 1 
121 1 -5.410123 1.301179 8.629252 1 
122 1 -4.977433 2.342626 7.712899 1 
123 1 -5.490151 2.165994 6.466353 1 
124 1 -6.510825 1.318076 6.138584 1 
125 1 -7.042770 0.509989 7.140329 1 
126 1 -6.502902 0.587766 8.360365 1 
127 1 -3.820844 -0.594659 11.238859 1 
128 1 -4.773979 -0.109247 10.427041 1 
129 1 -5.947110 -0.851486 10.253926 1 
130 1 -5.908283 -2.169962 10.680029 1 
131 1 -4.904433 -2.687181 11.381590 1 
132 1 -3.794509 -1.813533 11.635229 1 
133 1 -5.065375 -6.228031 10.771580 1 
134 1 -5.515345 -4.878322 10.944734 1 
135 1 -6.611809 -4.447756 10.272624 1 
136 1 -7.098660 -5.331156 9.264116 1 
137 1 -6.469378 -6.544949 9.006456 1 
138 1 -5.473431 -6.915887 9.757726 1 
139 1 -1.600026 -7.455560 10.844447 1 
140 1 -2.975108 -7.352519 10.589633 1 
141 1 -3.462607 -8.232921 9.779926 1 
142 1 -2.574733 -9.017076 8.884554 1 
143 1 -1.290519 -8.915760 9.073873 1 
144 1 -0.837952 -8.088828 10.115006 1 
145 1 -0.169776 -9.749807 5.775477 1 
146 1 -0.994490 -9.714394 6.833181 1 
147 1 -2.342879 -9.816795 6.645843 1 
148 1 -2.874504 -9.742264 5.444810 1 
149 1 -2.052802 -9.792599 4.362530 1 
150 1 -0.672349 -9.720899 4.499966 1 
151 1 2.887807 -7.859868 5.231401 1 
152 1 1.823773 -8.633460 4.962638 1 
153 1 1.261833 -8.613239 3.689966 1 
154 1 1.790874 -7.920156 2.642210 1 
155 1 2.802608 -7.096285 3.027723 1 
156 1 3.362644 -7.071618 4.273805 1 
157 1 2.184047 -4.343713 0.836029 1 
158 1 2.233325 -5.662694 1.302996 1 
159 1 1.213557 -6.508968 0.860160 1 
160 1 0.200358 -6.133038 0.156466 1 
161 1 0.074486 -4.760557 -0.147582 1 
162 1 1.220159 -3.914230 0.078880 1 
163 1 3.453254 -1.330824 2.161935 1 
164 1 2.844969 -2.202060 1.248855 1 
165 1 1.702437 -1.689073 0.589871 1 
166 1 1.168275 -0.522317 0.781806 1 
167 1 1.670235 0.274941 1.802593 1 
168 1 2.735202 -0.190439 2.399324 1 
169 1 -1.060057 2.498345 2.351885 1 
170 1 -0.284337 1.676264 1.552067 1 
171 1 -0.753222 0.828620 0.603777 1 
172 1 -2.117315 0.739806 0.464112 1 
173 1 -2.908479 1.513914 1.258863 1 
174 1 -2.320183 2.366575 2.242270 1 
175 1 -2.908818 2.990943 6.821545 1 
176 1 -1.589484 3.302788 6.952420 1 
177 1 -0.707005 3.342960 5.861988 1 
178 1 -1.276851 3.376021 4.635479 1 
179 1 -2.619543 3.245746 4.466682 1 
180 1 -3.407048 2.966442 5.546017 1 
181 1 3.518056 -0.058683 8.202776 1 
182 1 2.713873 1.421885 6.017699 1 
183 1 0.549324 3.147668 6.019337 1 
184 1 -1.041528 2.984028 8.214813 1 
185 1 -0.378990 1.320097 10.444982 1 
186 1 1.820522 -0.255082 10.206940 1 
187 1 4.570146 -2.549856 7.763619 1 
188 1 4.834435 -3.495450 5.221414 1 
189 1 4.259973 -1.829052 3.110135 1 
190 1 3.198908 0.571259 3.458271 1 
191 1 3.573864 -4.224396 9.617313 1 
192 1 2.851244 -6.773684 9.093029 1 
193 1 3.222085 -7.668116 6.496048 1 
194 1 4.080893 -5.916434 4.628223 1 
195 1 1.938271 -2.716463 11.358919 1 
196 1 -0.391054 -3.872968 12.166899 1 
197 1 -1.053323 -6.461111 11.629046 1 
198 1 0.507586 -7.735635 9.961220 1 
199 1 -2.682442 0.189512 11.431345 1 
200 1 -2.666391 -2.294261 12.235042 1 
201 1 -5.611640 -3.880945 0.236075 1 
202 1 -3.268797 -2.676958 -0.757628 1 
203 1 -1.006168 -4.178729 -0.668266 1 
204 1 -0.870225 -6.872226 -0.129744 1 
205 1 -3.240595 -7.802009 1.071527 1 
206 1 -5.508102 -6.380055 1.131437 1 
207 1 -7.226805 -2.357728 1.604331 1 
208 1 -6.533275 0.153089 2.304388 1 
209 1 -4.288182 1.213607 1.198377 1 
210 1 -2.718873 -0.153095 -0.342363 1 
211 1 -8.352753 -4.107024 3.565554 1 
212 1 -8.391433 -3.165786 6.154477 1 
213 1 -7.843327 -0.527002 6.871353 1 
214 1 -6.797707 1.009339 4.828691 1 
215 1 -7.190877 -6.567290 3.335711 1 
216 1 -6.511637 -8.179369 5.300203 1 
217 1 -6.848334 -7.242972 7.900997 1 
218 1 -7.853138 -4.718524 8.311980 1 
219 1 -2.554698 -9.416027 3.111774 1 
220 1 -4.272911 -9.577896 5.291231 1 
221 1 -6.874484 -0.454075 9.264967 1 
222 1 -4.683460 1.054159 9.870174 1 
223 1 -3.767726 2.910525 7.955389 1 
224 1 -4.758817 2.824465 5.369741 1 
225 1 -6.854049 -3.106244 10.152331 1 
226 1 -4.785242 -3.952509 11.619739 1 
227 1 -4.822957 -8.089410 9.464331 1 
228 1 -3.753333 -6.561078 11.273696 1 
229 1 -3.098068 -9.593420 7.792769 1 
230 1 -0.426071 -9.380523 8.097134 1 
231 1 -0.009781 -9.248270 3.494924 1 
232 1 1.030454 -9.177404 5.892006 1 
233 1 1.056076 -7.660280 1.537598 1 
234 1 3.108998 -6.068332 2.131863 1 
235 1 1.036496 -2.680030 -0.241621 1 
236 1 3.103219 -3.508721 1.272091 1 
237 1 0.116769 -0.032061 -0.056698 1 
238 1 1.099651 1.525268 1.965446 1 
239 1 -3.070248 2.780288 3.248417 1 
240 1 -0.495252 3.039595 3.545601 1 

 Bonds 

    1 1 91 204
2 1 91 96
3 1 91 92
4 1 94 95
5 1 94 201
6 1 95 202
7 1 95 96
8 1 96 203
9 1 161 162
10 1 161 203
11 1 98 202
12 1 98 99
13 1 8 9
14 1 8 202
15 1 7 203
16 1 7 8
17 1 6 235
18 1 6 10
19 1 6 7
20 1 97 98
21 1 97 210
22 1 97 102
23 1 9 10
24 1 9 210
25 1 10 237
26 1 13 14
27 1 13 205
28 1 14 204
29 1 14 15
30 1 15 233
31 1 2 206
32 1 2 3
33 1 93 94
34 1 93 206
35 1 92 205
36 1 92 93
37 1 160 161
38 1 160 204
39 1 159 233
40 1 159 160
41 1 158 234
42 1 158 159
43 1 5 207
44 1 1 2
45 1 1 201
46 1 1 5
47 1 162 235
48 1 157 158
49 1 157 162
50 1 157 236
51 1 99 100
52 1 99 201
53 1 164 236
54 1 164 165
55 1 100 101
56 1 100 207
57 1 101 102
58 1 101 208
59 1 166 167
60 1 166 237
61 1 165 235
62 1 165 166
63 1 102 209
64 1 173 209
65 1 173 174
66 1 172 210
67 1 172 173
68 1 171 237
69 1 171 172
70 1 170 171
71 1 170 238
72 1 167 168
73 1 167 238
74 1 12 13
75 1 12 219
76 1 11 231
77 1 11 15
78 1 11 12
79 1 117 118
80 1 117 215
81 1 120 219
82 1 119 205
83 1 119 120
84 1 118 206
85 1 118 119
86 1 154 233
87 1 154 155
88 1 3 4
89 1 3 215
90 1 155 234
91 1 155 156
92 1 4 5
93 1 4 211
94 1 50 234
95 1 46 50
96 1 46 47
97 1 46 236
98 1 105 207
99 1 105 106
100 1 47 48
101 1 47 189
102 1 104 105
103 1 104 208
104 1 168 190
105 1 163 189
106 1 163 168
107 1 163 164
108 1 28 208
109 1 28 29
110 1 27 209
111 1 27 28
112 1 26 27
113 1 26 239
114 1 26 30
115 1 174 239
116 1 169 170
117 1 169 174
118 1 169 240
119 1 55 238
120 1 149 219
121 1 149 150
122 1 148 220
123 1 148 149
124 1 150 231
125 1 116 117
126 1 116 216
127 1 115 220
128 1 115 116
129 1 115 120
130 1 153 154
131 1 153 231
132 1 152 153
133 1 152 232
134 1 151 156
135 1 151 193
136 1 151 152
137 1 112 113
138 1 112 215
139 1 156 194
140 1 111 112
141 1 111 211
142 1 49 50
143 1 49 194
144 1 48 188
145 1 48 49
146 1 106 211
147 1 106 107
148 1 107 212
149 1 107 108
150 1 71 188
151 1 71 72
152 1 103 104
153 1 103 214
154 1 103 108
155 1 72 189
156 1 67 72
157 1 67 68
158 1 67 190
159 1 29 30
160 1 29 214
161 1 30 224
162 1 179 239
163 1 179 180
164 1 178 240
165 1 178 179
166 1 51 240
167 1 51 52
168 1 51 55
169 1 52 53
170 1 52 183
171 1 54 190
172 1 54 55
173 1 53 182
174 1 53 54
175 1 19 20
176 1 19 220
177 1 147 229
178 1 147 148
179 1 145 150
180 1 145 232
181 1 145 146
182 1 146 147
183 1 146 230
184 1 41 232
185 1 41 42
186 1 41 45
187 1 18 19
188 1 18 216
189 1 114 217
190 1 113 216
191 1 113 114
192 1 78 193
193 1 73 194
194 1 73 78
195 1 73 74
196 1 109 114
197 1 109 110
198 1 109 218
199 1 110 212
200 1 110 111
201 1 74 188
202 1 74 75
203 1 108 213
204 1 69 70
205 1 69 181
206 1 70 187
207 1 70 71
208 1 125 126
209 1 125 213
210 1 124 125
211 1 124 214
212 1 68 69
213 1 68 182
214 1 123 224
215 1 123 124
216 1 180 224
217 1 175 176
218 1 175 223
219 1 175 180
220 1 176 184
221 1 176 177
222 1 177 183
223 1 177 178
224 1 66 183
225 1 65 66
226 1 65 182
227 1 20 229
228 1 45 230
229 1 17 217
230 1 17 18
231 1 16 227
232 1 16 20
233 1 16 17
234 1 142 229
235 1 142 143
236 1 143 144
237 1 143 230
238 1 42 43
239 1 42 193
240 1 43 44
241 1 43 192
242 1 137 138
243 1 137 217
244 1 77 78
245 1 77 192
246 1 76 191
247 1 76 77
248 1 75 76
249 1 75 187
250 1 23 212
251 1 23 24
252 1 24 218
253 1 24 25
254 1 33 187
255 1 33 34
256 1 22 23
257 1 22 213
258 1 21 25
259 1 21 221
260 1 21 22
261 1 126 221
262 1 121 122
263 1 121 126
264 1 121 222
265 1 64 181
266 1 64 65
267 1 122 223
268 1 122 123
269 1 61 62
270 1 61 184
271 1 61 66
272 1 141 227
273 1 141 142
274 1 140 228
275 1 140 141
276 1 144 198
277 1 139 144
278 1 139 140
279 1 139 197
280 1 44 198
281 1 44 45
282 1 138 227
283 1 133 134
284 1 133 228
285 1 133 138
286 1 79 80
287 1 79 198
288 1 79 84
289 1 80 192
290 1 80 81
291 1 136 137
292 1 136 218
293 1 135 225
294 1 135 136
295 1 81 82
296 1 81 191
297 1 25 225
298 1 130 131
299 1 130 225
300 1 31 35
301 1 31 32
302 1 31 195
303 1 32 191
304 1 32 33
305 1 129 130
306 1 129 221
307 1 128 222
308 1 128 129
309 1 35 186
310 1 34 181
311 1 34 35
312 1 62 63
313 1 62 185
314 1 63 64
315 1 63 186
316 1 56 57
317 1 56 60
318 1 56 222
319 1 60 223
320 1 59 60
321 1 59 184
322 1 58 59
323 1 58 185
324 1 36 37
325 1 36 228
326 1 36 40
327 1 37 38
328 1 37 197
329 1 84 197
330 1 134 226
331 1 134 135
332 1 40 226
333 1 39 200
334 1 39 40
335 1 38 196
336 1 38 39
337 1 82 195
338 1 82 83
339 1 83 196
340 1 83 84
341 1 131 226
342 1 131 132
343 1 86 87
344 1 86 196
345 1 87 88
346 1 87 195
347 1 132 200
348 1 127 132
349 1 127 199
350 1 127 128
351 1 85 90
352 1 85 86
353 1 85 200
354 1 90 199
355 1 88 89
356 1 88 186
357 1 57 58
358 1 57 199
359 1 89 90
360 1 89 185
