# LAMMPS data file written by OVITO Pro 3.8.3

36 atoms
54 bonds
1 atom types
1 bond types

-1.21025999999999988 38.78974000000000192 xlo xhi
-14.33132999999999948 25.6686699999999988 ylo yhi
-26.4048079999999992 13.5951920000000008 zlo zhi

Masses

1 1.0  # 1

Atoms  # hybrid dipole ellipsoid bond

1 1 20.9627459999999992 5.86776799999999984 -5.0123420000000003 0 0 0 0 0 0.23873241463784304 1
2 1 21.05437099999999973 6.0939899999999998 -7.73857100000000032 0 0 0 0 0 0.23873241463784304 1
3 1 20.98662200000000048 4.75380299999999952 -7.17125199999999996 0 0 0 0 0 0.23873241463784304 1
4 1 20.90885199999999952 4.73074599999999984 -5.85078700000000048 0 0 0 0 0 0.23873241463784304 1
5 1 20.13582600000000156 5.66575800000000032 -3.83130300000000016 0 0 0 0 0 0.23873241463784304 1
6 1 19.3632850000000012 6.81572400000000032 -3.71175999999999992 0 0 0 0 0 0.23873241463784304 1
7 1 17.953989 6.6427379999999996 -3.78071499999999984 0 0 0 0 0 0.23873241463784304 1
8 1 19.53853600000000056 4.40589899999999976 -3.98284599999999984 0 0 0 0 0 0.23873241463784304 1
9 1 18.24353999999999944 4.29605399999999984 -4.03015599999999985 0 0 0 0 0 0.23873241463784304 1
10 1 17.39763100000000048 5.40374700000000008 -3.87317799999999984 0 0 0 0 0 0.23873241463784304 1
11 1 19.1187189999999987 3.360541 -7.33588799999999976 0 0 0 0 0 0.23873241463784304 1
12 1 19.14116500000000088 3.1870569999999998 -5.90767899999999984 0 0 0 0 0 0.23873241463784304 1
13 1 20.13943099999999832 3.73728900000000016 -5.17542900000000028 0 0 0 0 0 0.23873241463784304 1
14 1 20.19341700000000016 4.04799600000000038 -7.977106 0 0 0 0 0 0.23873241463784304 1
15 1 16.67001700000000144 6.61108199999999968 -5.65756299999999968 0 0 0 0 0 0.23873241463784304 1
16 1 17.44831800000000048 7.451352 -4.90216100000000048 0 0 0 0 0 0.23873241463784304 1
17 1 16.52510799999999944 6.68618600000000016 -7.01855199999999968 0 0 0 0 0 0.23873241463784304 1
18 1 16.55616600000000104 5.33360699999999976 -5.0889540000000002 0 0 0 0 0 0.23873241463784304 1
19 1 18.57055099999999824 8.05914899999999968 -5.5019479999999996 0 0 0 0 0 0.23873241463784304 1
20 1 19.73407600000000176 7.6692090000000004 -4.80959999999999968 0 0 0 0 0 0.23873241463784304 1
21 1 18.45945400000000096 8.15028299999999994 -6.83631000000000016 0 0 0 0 0 0.23873241463784304 1
22 1 17.37645099999999944 7.616968 -7.66788999999999984 0 0 0 0 0 0.23873241463784304 1
23 1 19.66779299999999968 7.84786300000000032 -7.53648200000000032 0 0 0 0 0 0.23873241463784304 1
24 1 20.71993399999999856 7.17903999999999964 -6.94914300000000032 0 0 0 0 0 0.23873241463784304 1
25 1 20.68482399999999896 7.1215799999999998 -5.58814000000000008 0 0 0 0 0 0.23873241463784304 1
26 1 17.93959399999999968 6.99220500000000016 -8.7886070000000008 0 0 0 0 0 0.23873241463784304 1
27 1 19.34858499999999992 7.1446550000000002 -8.81260299999999936 0 0 0 0 0 0.23873241463784304 1
28 1 20.21847899999999856 6.10466599999999994 -8.92124899999999952 0 0 0 0 0 0.23873241463784304 1
29 1 17.33762000000000116 5.7057209999999996 -8.93612300000000032 0 0 0 0 0 0.23873241463784304 1
30 1 16.85836000000000112 4.16699800000000042 -5.85052500000000016 0 0 0 0 0 0.23873241463784304 1
31 1 16.85516000000000144 4.211989 -7.26872999999999968 0 0 0 0 0 0.23873241463784304 1
32 1 16.5393049999999988 5.52377900000000024 -7.794409 0 0 0 0 0 0.23873241463784304 1
33 1 17.89933999999999872 3.5225 -5.28268299999999956 0 0 0 0 0 0.23873241463784304 1
34 1 17.93291899999999824 3.66393900000000008 -7.96502399999999968 0 0 0 0 0 0.23873241463784304 1
35 1 18.26395199999999976 4.69836399999999976 -9.04010000000000069 0 0 0 0 0 0.23873241463784304 1
36 1 19.69116599999999904 4.804087 -9.09785600000000018 0 0 0 0 0 0.23873241463784304 1

Bonds

1 1 1 4
2 1 1 5
3 1 1 25
4 1 2 3
5 1 2 28
6 1 2 24
7 1 3 4
8 1 3 14
9 1 4 13
10 1 5 6
11 1 5 8
12 1 6 7
13 1 6 20
14 1 7 10
15 1 7 16
16 1 8 9
17 1 8 13
18 1 9 10
19 1 9 33
20 1 10 18
21 1 11 14
22 1 11 12
23 1 11 34
24 1 12 13
25 1 12 33
26 1 14 36
27 1 15 17
28 1 15 16
29 1 15 18
30 1 16 19
31 1 17 22
32 1 17 32
33 1 18 30
34 1 19 21
35 1 19 20
36 1 20 25
37 1 21 22
38 1 21 23
39 1 22 26
40 1 23 24
41 1 23 27
42 1 24 25
43 1 26 29
44 1 26 27
45 1 27 28
46 1 28 36
47 1 29 32
48 1 29 35
49 1 30 31
50 1 30 33
51 1 31 32
52 1 31 34
53 1 34 35
54 1 35 36
