LAMMPS data file via write_data, version 15 Sep 2022, timestep = 50000000

48 atoms
1 atom types
72 bonds
1 bond types
48 ellipsoids

-20 20 xlo xhi
-20 20 ylo yhi
-20 20 zlo zhi

Masses

1 1

Pair Coeffs # lj/cut

1 1 2.5

Bond Coeffs # fene

1 30 1.8 0 1

Atoms # hybrid

44 1 -7.25837203846291 7.5188844266008585 -11.046356407496216 0 -0.5435539036149919 0.7770528950305475 0.31739242616916563 1 11.99524007821832 1 0 0 0
9 1 -8.316712066586945 4.4934104036397935 -9.749267583235396 0 -0.9379023801322834 0.19569340643163902 0.28643186977251445 1 11.99524007821832 1 0 0 0
7 1 -9.541797922883777 6.561464783962608 -9.864906041804673 0 0.9469760748986374 -0.18236990423808075 0.2645326664095819 1 11.99524007821832 1 0 0 0
45 1 -7.3448659699820436 6.149970959369267 -10.770993826777117 0 -0.4255931378890768 0.7226761908773028 -0.5446187695267232 1 11.99524007821832 1 0 0 0
8 1 -8.595391839351269 5.658622765767784 -10.356529016252043 0 -0.553068292303851 -0.7384705981599089 0.3857157498747594 1 11.99524007821832 1 0 0 0
15 1 -6.42750932076766 5.754120099037548 -9.652707445400548 0 -0.22760960518308504 -0.9305845403459143 0.28671637710040876 1 11.99524007821832 1 0 0 0
13 1 -10.060915354882644 8.828240685109291 -9.104598914332797 0 -0.5364009208170462 -0.2871843315503112 -0.7935988985996806 1 11.99524007821832 1 0 0 0
6 1 -9.471250590222025 7.8881742395217405 -9.957013104385691 0 0.06214302594537398 0.636075446198835 -0.7691204529001329 1 11.99524007821832 1 0 0 0
10 1 -8.405213149310056 8.384708256166828 -10.719981141857923 0 -0.41292573258744414 -0.8005579323594425 -0.4342802508789655 1 11.99524007821832 1 0 0 0
41 1 -6.257778024087365 7.990798310831335 -10.039497228090118 0 0.10914351363280159 0.5193244184985928 -0.8475788115467402 1 11.99524007821832 1 0 0 0
46 1 -9.783463027171079 10.16546820817885 -9.017819139339665 0 -0.9450079751261179 -0.003890145151355301 -0.32702414852535855 1 11.99524007821832 1 0 0 0
47 1 -8.471818836141445 10.516351615717943 -9.474266688338927 0 0.64197691948496 0.4728202954865235 0.6035781664578643 1 11.99524007821832 1 0 0 0
48 1 -7.8293575252342364 9.56532492153623 -10.183513394126006 0 0.7921723083173943 -0.5563127908394326 0.2509563959805225 1 11.99524007821832 1 0 0 0
42 1 -6.593200089725085 9.240091557363987 -9.527516965822958 0 0.33750338489286613 -0.8691439952221723 -0.36149713796252647 1 11.99524007821832 1 0 0 0
4 1 -10.264543502252668 4.676086133951327 -8.515421452157437 0 -0.40096649570139054 -0.4100573062407391 0.8191940398486406 1 11.99524007821832 1 0 0 0
5 1 -9.100505042744462 4.02450968612184 -8.799424183917488 0 -0.15854530197694144 -0.0995167888956413 -0.9823236716830865 1 11.99524007821832 1 0 0 0
17 1 -8.306138683292 3.8780552211839905 -7.494843366127601 0 0.23811594342830844 -0.8222936544897828 0.5168500200939186 1 11.99524007821832 1 0 0 0
16 1 -7.262907285098137 4.822252487935966 -7.660227447742921 0 -0.07884477636676654 0.2316625414513212 -0.9695957756343561 1 11.99524007821832 1 0 0 0
14 1 -7.0017823884338535 4.757321539976477 -9.092667621134455 0 -0.2108359466366891 0.6451165754062614 0.7344200485702365 1 11.99524007821832 1 0 0 0
2 1 -11.1265903632556 6.9217570181800365 -8.089040015157913 0 0.8174403790177996 0.5162350976670422 0.2555240706625026 1 11.99524007821832 1 0 0 0
3 1 -10.369050941760563 6.059989934290802 -8.842067181386525 0 0.735568532934323 0.6307077175513688 -0.24727860477200786 1 11.99524007821832 1 0 0 0
19 1 -6.21254128013192 6.990909995033093 -8.979901188686853 0 0.9859886920402259 -0.13842207756212632 0.09308935284010382 1 11.99524007821832 1 0 0 0
20 1 -6.764644346471321 7.17347967502953 -7.78703554983762 0 -0.10848257210981527 0.9334479645560606 -0.3419158215329996 1 11.99524007821832 1 0 0 0
11 1 -11.03497161777778 8.343472665747601 -8.197561225257282 0 0.18256865733545724 -0.1524582548744997 0.9713007597440404 1 11.99524007821832 1 0 0 0
28 1 -7.282286856427519 8.470127997298292 -7.433736918297697 0 0.4282912340529673 -0.6403768600752547 0.6375610526949902 1 11.99524007821832 1 0 0 0
37 1 -9.97103085213002 10.803966855704818 -7.811755434279041 0 -0.2829843882158126 -0.13281261530842925 -0.9498845431109284 1 11.99524007821832 1 0 0 0
39 1 -7.753522405516483 10.698666215887 -8.262755487801243 0 -0.26077939886417334 0.07328243726745406 0.9626130009075206 1 11.99524007821832 1 0 0 0
40 1 -8.616640463493306 10.983004946704517 -7.211524999900646 0 0.5875087968663777 0.24760926178833664 -0.7704044827759351 1 11.99524007821832 1 0 0 0
43 1 -6.891739788929342 9.569153669898423 -8.175271065653563 0 0.0452148154544234 -0.993193007773378 -0.1073464939972083 1 11.99524007821832 1 0 0 0
33 1 -11.227759760322515 5.168325055577968 -6.442597350996907 0 0.01953315492329381 0.3895626197664449 0.9207928220503495 1 11.99524007821832 1 0 0 0
34 1 -10.559058957329443 4.36096718590357 -7.189089446984752 0 -0.36551343416562054 -0.1258991618239948 -0.9222523139013912 1 11.99524007821832 1 0 0 0
18 1 -9.23678782479152 4.143163101104064 -6.503957738205968 0 0.7700712580891464 0.5950210794968026 -0.2300873147730204 1 11.99524007821832 1 0 0 0
23 1 -9.115516415683537 5.228630909549049 -5.652970014148307 0 -0.5732097506569589 0.08360815745169947 -0.8151320492774891 1 11.99524007821832 1 0 0 0
1 1 -11.689720922818477 6.41933257065445 -6.981962374729601 0 0.39377167998415374 0.6516245532372387 0.6483280848928468 1 11.99524007821832 1 0 0 0
36 1 -11.80696463900886 7.24497191988235 -5.835203491960003 0 -0.4823036645856479 -0.035212089587997486 -0.8752961121095544 1 11.99524007821832 1 0 0 0
21 1 -7.503042374189635 6.09653205720257 -7.16926804091826 0 0.4526764933673595 -0.41443959385325835 -0.789508591086492 1 11.99524007821832 1 0 0 0
22 1 -8.325468330006935 6.271517834039881 -6.112415495691565 0 -0.45200280382102087 -0.29091641058690954 0.843244393630438 1 11.99524007821832 1 0 0 0
35 1 -11.701635839119422 8.536091440651001 -5.958873674405674 0 0.6470501118902822 0.29327148364694344 0.703788313047534 1 11.99524007821832 1 0 0 0
12 1 -11.484063008262776 9.140459540802725 -7.182997097787552 0 0.30150505355892965 -0.21249099627489088 0.9294849537139005 1 11.99524007821832 1 0 0 0
24 1 -8.75020450056904 7.5779189877874895 -5.778021658868798 0 0.16725971387259658 0.20307902316174165 -0.9647710083055616 1 11.99524007821832 1 0 0 0
29 1 -8.050832343608676 8.715108301906845 -6.313415621960774 0 0.3438816653057418 0.8604370228524444 -0.3760233104095699 1 11.99524007821832 1 0 0 0
38 1 -10.785556802406571 10.328179694177026 -6.854769199148398 0 -0.7242949560448215 0.08192355539840951 0.6846059799029754 1 11.99524007821832 1 0 0 0
27 1 -9.960127172066477 10.027885395760457 -5.714274149145429 0 -0.5299420720395682 0.07732140622900086 0.84450151001711 1 11.99524007821832 1 0 0 0
30 1 -8.666756071867871 9.931029483336282 -6.153488573457035 0 -0.6450189118441266 -0.1308767337806473 0.7528757426815718 1 11.99524007821832 1 0 0 0
32 1 -10.378214953264646 5.559504240126486 -5.250175703261593 0 0.5648216290047532 0.04771763498997772 0.823832236999366 1 11.99524007821832 1 0 0 0
31 1 -10.74046681683944 6.732311941139148 -4.849745908561838 0 0.7624413078329428 -0.2947192139833412 0.5760415236934164 1 11.99524007821832 1 0 0 0
25 1 -9.80651625730898 7.7972252819065995 -4.872651247487432 0 0.40811634079536346 0.7838112397165516 -0.46806088585760375 1 11.99524007821832 1 0 0 0
26 1 -10.580743665233896 8.985600213816191 -5.097196703918481 0 -0.28196840117439287 -0.22851773096991257 -0.9318119270386698 1 11.99524007821832 1 0 0 0

Velocities

44 -160.05311382179133 28.42516395640739 63.0880232228278 0 0 0
9 102.10312257185062 -76.45171043279281 -58.624142632510924 0 0 0
7 -87.55259855368286 -44.427668121583935 92.34118195359999 0 0 0
45 123.43084605732963 92.99292578579329 76.80799743013812 0 0 0
8 22.48320652324806 -134.85559055238508 -56.86092916902827 0 0 0
15 36.17438475538261 -25.60624168159614 -91.56890791975898 0 0 0
13 153.49522482686865 -80.24920442693545 -20.907290067346246 0 0 0
6 58.216857961691225 -77.34042476720724 134.22951198496207 0 0 0
10 -68.71187086652229 66.85838400349759 83.94541782052485 0 0 0
41 -4.631803081778839 34.40084338320364 3.1087335348856495 0 0 0
46 -98.3974840095493 59.65557535682349 -32.465024496188455 0 0 0
47 98.37632813154337 -10.822614326396147 -31.576521895019503 0 0 0
48 77.38761969104928 18.226509631741834 -132.6454806812153 0 0 0
42 -75.58816844650774 -66.58080331000158 72.15545604117764 0 0 0
4 -6.155436749468007 30.213302331708828 57.50961850568537 0 0 0
5 16.67352259743531 24.85830278767373 20.94609148333656 0 0 0
17 -75.36028173233166 -36.29758274167784 -80.80504682434554 0 0 0
16 183.26062562944 43.78936433458733 -86.6651591365788 0 0 0
14 -23.278162654893535 -40.56931366934368 -22.271497959607515 0 0 0
2 150.4414185039762 138.85755439791737 -69.92316371626728 0 0 0
3 115.50237136725603 44.084516781816106 73.89608029829245 0 0 0
19 78.33855653105468 132.63593189819153 -15.855544219799377 0 0 0
20 -181.00844415167998 -109.96089932044582 104.68579869616082 0 0 0
11 68.85340243876888 -39.62508721339908 -72.04759037939307 0 0 0
28 59.4590957294835 53.78510207516061 93.53574293416224 0 0 0
37 175.36985108205877 -46.404096386054235 83.16538147324842 0 0 0
39 -162.82764376524395 -81.92359130714233 -44.364755293385706 0 0 0
40 95.23213006877633 19.502402820669463 -36.46326906432713 0 0 0
43 -128.77927940180388 -33.775972287915394 3.16878670989405 0 0 0
33 93.51083207750467 19.304080327456653 81.05943262845057 0 0 0
34 28.724395138905408 190.12580254914644 86.3313063999032 0 0 0
18 53.61015048481977 51.62313463288663 -69.44314672721647 0 0 0
23 -241.0998036023975 -55.113874407260894 -28.058543633397885 0 0 0
1 70.94678490872462 61.813910226875926 -54.32407506522526 0 0 0
36 41.545365830980636 50.40441768248297 -4.74536950308009 0 0 0
21 -30.337136908798655 98.83896665386746 -65.99332291876217 0 0 0
22 -151.0822279626563 -73.59411979950646 -12.095901718685454 0 0 0
35 84.25947933826247 49.67411953153937 77.01437662551004 0 0 0
12 122.15976484049015 -28.950757761063862 -67.50752190063888 0 0 0
24 61.45807341286958 -15.661142953074489 -55.13342848279532 0 0 0
29 -1.9697023113491336 -34.36411065552712 152.07607774070271 0 0 0
38 50.12884320161883 -64.29788253059031 -101.09090881647104 0 0 0
27 -68.57668753146041 -42.17652506199055 89.7578744531865 0 0 0
30 -43.843382780004504 116.55638549165609 70.45758954369715 0 0 0
32 47.187555841665514 81.50308224053086 60.802078852772794 0 0 0
31 -107.36756353111926 -114.43402776918816 55.40074034606769 0 0 0
25 76.69752831591467 43.43050936646066 -22.25253759617558 0 0 0
26 -123.82501747072844 4.80668176639718 54.75166166173823 0 0 0

Bonds

1 1 44 45
2 1 9 14
3 1 7 8
4 1 8 9
5 1 8 45
6 1 15 45
7 1 15 19
8 1 13 46
9 1 6 13
10 1 6 10
11 1 6 7
12 1 10 44
13 1 10 48
14 1 41 42
15 1 41 44
16 1 46 47
17 1 47 48
18 1 42 48
19 1 42 43
20 1 4 34
21 1 4 5
22 1 5 9
23 1 5 17
24 1 17 18
25 1 16 21
26 1 16 17
27 1 14 15
28 1 14 16
29 1 2 11
30 1 2 3
31 1 3 7
32 1 3 4
33 1 19 20
34 1 19 41
35 1 20 28
36 1 20 21
37 1 11 12
38 1 11 13
39 1 28 43
40 1 28 29
41 1 37 40
42 1 37 46
43 1 37 38
44 1 39 43
45 1 39 47
46 1 39 40
47 1 33 34
48 1 18 23
49 1 18 34
50 1 23 32
51 1 1 33
52 1 1 2
53 1 1 36
54 1 21 22
55 1 22 23
56 1 22 24
57 1 35 36
58 1 12 38
59 1 12 35
60 1 24 29
61 1 24 25
62 1 29 30
63 1 27 30
64 1 27 38
65 1 30 40
66 1 32 33
67 1 31 32
68 1 31 36
69 1 25 31
70 1 25 26
71 1 26 27
72 1 26 35

Ellipsoids

44 1 1 1 0.31955831941888413 0.3551134025669582 0.3823376048301204 0.7909455782418047
9 1 1 1 -0.03241045199209424 0.1732003826079098 0.6953174586087527 0.6967674086953315
7 1 1 1 -0.861144016039368 0.481579714158422 0.07189357803421562 0.14609338105512976
45 1 1 1 -0.06271579103691488 -0.5322313036735774 -0.7290774462719246 0.4257260225569344
8 1 1 1 -0.34871035458527777 -0.3191660108048541 0.8283095256938204 0.3007282424329375
15 1 1 1 0.07748990381483187 0.6165959067454354 -0.7716463681333036 0.13552374381718021
13 1 1 1 -0.28305082203787735 0.38946344081974993 -0.7257922494693118 -0.49135127049677957
6 1 1 1 -0.49983093788304933 -0.5303211729769407 -0.6795266328710292 0.08468791086261648
10 1 1 1 -0.5374038831728414 -0.0688055234485506 -0.3037112943249701 0.7837233670072454
41 1 1 1 -0.4513564424830489 -0.5923251798171735 -0.6222540890257291 0.24130497689512972
46 1 1 1 0.11266529636009151 0.12166570360226323 0.6613863636949946 -0.7314862032064386
47 1 1 1 -0.38508438172098347 0.8201819790126139 0.37773199084596415 0.19060452079912574
48 1 1 1 0.48143154989739645 0.8150520332605078 -0.32041684569672324 -0.03531134145094303
42 1 1 1 -0.5027407945930071 -0.644983244664871 0.283247100542742 0.5010183505498542
4 1 1 1 -0.5393875624423773 -0.09261646523040834 0.8010255371759777 0.24257233280535484
5 1 1 1 -0.4887785975421147 -0.42640688502449464 -0.5201755289326994 0.5555988391709049
17 1 1 1 -0.5980307750907794 0.5112897062903533 -0.08992539314028966 0.6106189089394547
16 1 1 1 -0.5206391759828627 -0.43533028868722456 -0.6574996821077624 0.32728665755202185
14 1 1 1 -0.3760416054571919 0.5031647221803542 0.7612769411152506 0.1608582986499356
2 1 1 1 0.01085828015137365 -0.9532063193564414 -0.27228024370291637 -0.1309323465770804
3 1 1 1 -0.1836781740789314 0.913261515029617 0.3057104303230674 -0.19686763655950038
19 1 1 1 0.5897419428700558 -0.803242669957196 0.028342469211020727 -0.07875505329126134
20 1 1 1 -0.5583157262798054 0.3661178276644634 0.16921145462330645 -0.7249888065888827
11 1 1 1 -0.004666658829264611 -0.7689359862583489 0.10296515731766155 -0.6309626357486
28 1 1 1 0.38804638552101195 0.7507100770008098 -0.5097984266960018 0.16112090836324625
37 1 1 1 0.2726943702682568 0.5330530802050509 0.26252147169090406 -0.7566866399039619
39 1 1 1 0.6014831837184227 0.08847756931484682 -0.7744801479721115 0.17484335797845726
40 1 1 1 0.6800538576429537 -0.5755702816669099 0.2402506421754672 0.3853897125003296
43 1 1 1 0.29751112036088423 -0.6588585136346218 0.6566214278654341 -0.21503695668593045
33 1 1 1 0.6858926734723164 -0.19828721072889494 -0.6952302946550974 0.08299554164013538
34 1 1 1 0.5283429520019844 0.1951845485355296 0.7292383540812125 -0.38854618775601746
18 1 1 1 0.940760064856371 -0.0024757657421243264 0.1214548981469353 0.3165644937000111
23 1 1 1 0.33172351647131293 -0.3214881542007841 0.5705834140643341 0.6789988534034267
1 1 1 1 0.09529863362722044 0.8293395025083887 0.3434086149440369 0.4303308996460065
36 1 1 1 0.40482962506816855 -0.30815765830876596 0.7054264188836442 0.4934829276011697
21 1 1 1 -0.8518879705801986 0.025002645148674774 -0.47012184793732575 0.2294497797085766
22 1 1 1 -0.16277870727117014 0.49749541761569666 -0.01362661874811988 0.8519481892533161
35 1 1 1 0.5540001080739546 0.7187551295115657 -0.10874497198707177 0.4057702245389499
12 1 1 1 -0.5388546788991168 -0.6003233810272549 0.4828414825422749 -0.3407514870942068
24 1 1 1 0.4543345406105208 -0.6141742278413556 0.26866590775353855 0.5866760375834936
29 1 1 1 -0.6327788194207631 -0.5210871312413464 -0.5106865165330919 -0.2593423397334594
38 1 1 1 0.24226355364178778 0.28135545588177546 -0.5179645472222623 0.770623258047178
27 1 1 1 0.4845089587832198 -0.016734181755201093 -0.8732167534236382 0.04963403630640052
30 1 1 1 0.1653308045538755 -0.38750002470129585 -0.20778237814581077 -0.8828000562155253
32 1 1 1 -0.48565824593441537 -0.7392880917871486 0.23314084690983858 -0.40402293375473924
31 1 1 1 -0.6707431117800544 0.6567528697433158 0.10940403729056779 0.3268181492941488
25 1 1 1 0.2365268210041008 0.8050548014535257 0.526746216805039 -0.1359420931275409
26 1 1 1 -0.44004411706074925 -0.40666567897110417 -0.4416352135438668 0.6677892921762519
