
    540 atoms
    810 bonds
    1 atom types
    1 bond types

    -20.000000 20.000000 xlo xhi
    -20.000000 20.000000 ylo yhi
    -20.000000 20.000000 zlo zhi

    Atoms 

    1 1 4.468015 7.960628 -6.267383 1 
2 1 3.567542 7.499311 -7.213626 1 
3 1 2.502727 8.394228 -7.369812 1 
4 1 2.817257 9.487993 -6.500122 1 
5 1 3.930451 9.207939 -5.799167 1 
6 1 8.711522 0.013702 0.632764 1 
7 1 8.689274 0.577713 -0.693389 1 
8 1 8.945996 1.993299 -0.626703 1 
9 1 8.999003 2.337703 0.684772 1 
10 1 8.861263 1.119596 1.470649 1 
11 1 0.351688 -3.398480 -7.182951 1 
12 1 0.458723 -2.159179 -7.962079 1 
13 1 1.770939 -1.799696 -7.928597 1 
14 1 2.429892 -2.690934 -6.979159 1 
15 1 1.618853 -3.702298 -6.636188 1 
16 1 -8.200641 5.105892 -7.469931 1 
17 1 -7.226652 6.064174 -7.764220 1 
18 1 -6.251355 5.477808 -8.569055 1 
19 1 -6.443357 4.103190 -8.602542 1 
20 1 -7.692373 3.874837 -7.867110 1 
21 1 -5.248537 13.752802 0.322839 1 
22 1 -4.036260 13.949359 -0.344035 1 
23 1 -4.165385 13.687771 -1.730065 1 
24 1 -5.487690 13.226852 -1.895488 1 
25 1 -6.132154 13.294038 -0.683682 1 
26 1 5.206615 10.595425 5.273448 1 
27 1 5.886475 10.584408 3.980127 1 
28 1 5.234507 11.508708 3.226255 1 
29 1 4.154072 12.126228 3.936916 1 
30 1 4.241024 11.585358 5.241415 1 
31 1 -8.160202 -1.280348 8.787668 1 
32 1 -7.666011 -2.493835 8.258160 1 
33 1 -6.413242 -2.819514 9.052603 1 
34 1 -6.210322 -1.791839 9.867258 1 
35 1 -7.295977 -0.911105 9.931985 1 
36 1 -12.417933 5.459577 0.870911 1 
37 1 -12.760067 4.353881 1.702013 1 
38 1 -12.518606 4.657234 3.046216 1 
39 1 -12.176833 5.968159 3.103264 1 
40 1 -12.199431 6.566038 1.722041 1 
41 1 -7.799964 -4.984809 -2.797625 1 
42 1 -7.741457 -5.519552 -1.452303 1 
43 1 -8.791691 -4.807077 -0.748641 1 
44 1 -9.532579 -3.989571 -1.608455 1 
45 1 -8.859975 -4.126915 -2.912582 1 
46 1 2.358993 -6.460406 3.185417 1 
47 1 1.759597 -6.404697 4.437237 1 
48 1 0.506403 -6.994417 4.325522 1 
49 1 0.266508 -7.388133 2.913060 1 
50 1 1.506589 -7.093638 2.265229 1 
51 1 4.152717 2.822364 10.399639 1 
52 1 2.932117 2.586038 11.106352 1 
53 1 2.655731 1.187004 10.961896 1 
54 1 3.659018 0.568936 10.242226 1 
55 1 4.582124 1.631617 9.853237 1 
56 1 -5.133380 10.279546 9.053800 1 
57 1 -6.096431 9.300448 9.406410 1 
58 1 -5.512860 8.403557 10.317921 1 
59 1 -4.122970 8.827433 10.365491 1 
60 1 -3.919367 10.003075 9.587624 1 
61 1 -3.454107 6.676628 10.440747 1 
62 1 -4.730988 6.259479 10.350631 1 
63 1 -5.812796 0.945118 10.331252 1 
64 1 -4.789775 0.000801 10.478032 1 
65 1 0.376417 1.737740 10.770984 1 
66 1 0.598969 3.042826 10.812193 1 
67 1 -2.445075 5.796612 10.855467 1 
68 1 -0.391382 3.964331 10.994533 1 
69 1 -4.989800 4.923834 10.382758 1 
70 1 -5.636817 2.279535 10.365096 1 
71 1 -3.511008 0.540654 10.572054 1 
72 1 -0.944851 1.387228 10.704173 1 
73 1 -2.768901 4.529463 10.997841 1 
74 1 -4.014506 3.991788 10.656253 1 
75 1 -4.221351 2.693631 10.626134 1 
76 1 -3.227074 1.827964 10.787268 1 
77 1 -1.953132 2.256380 11.041497 1 
78 1 -1.723209 3.621950 11.133855 1 
79 1 2.247422 -1.031442 9.503874 1 
80 1 1.199275 -0.361951 10.069904 1 
81 1 -3.922481 -1.918744 9.446463 1 
82 1 -4.188549 -2.877093 8.516991 1 
83 1 -0.285944 -5.516301 5.834213 1 
84 1 1.024889 -4.908859 6.065645 1 
85 1 1.923989 -2.077392 8.628040 1 
86 1 1.352213 -4.006655 6.950971 1 
87 1 -0.142942 -0.599753 9.872553 1 
88 1 -2.706601 -1.488910 9.656588 1 
89 1 -3.248849 -3.414046 7.703745 1 
90 1 -1.243973 -4.866543 6.588045 1 
91 1 0.688366 -2.576827 8.706351 1 
92 1 -0.390359 -1.777386 9.175461 1 
93 1 -1.642857 -2.184783 8.932469 1 
94 1 -1.901591 -3.179164 8.079397 1 
95 1 -0.868489 -3.978174 7.604178 1 
96 1 0.433218 -3.542598 7.820299 1 
97 1 -1.958649 -6.690874 3.049265 1 
98 1 -1.809806 -6.351705 4.350387 1 
99 1 -5.786391 -3.869769 7.107769 1 
100 1 -6.891954 -3.619628 6.422782 1 
101 1 -7.592346 -4.915407 1.199328 1 
102 1 -6.529486 -5.510195 0.505222 1 
103 1 -3.072580 -6.274202 2.366605 1 
104 1 -5.423124 -5.716736 1.227057 1 
105 1 -2.839499 -5.898391 5.090944 1 
106 1 -4.798993 -4.638466 6.440279 1 
107 1 -7.114462 -4.040110 5.139325 1 
108 1 -7.455477 -4.626925 2.510867 1 
109 1 -4.171697 -5.955643 3.136186 1 
110 1 -4.088246 -5.793556 4.515740 1 
111 1 -5.094857 -5.165119 5.222410 1 
112 1 -6.261941 -4.811896 4.594157 1 
113 1 -6.401629 -5.069094 3.224095 1 
114 1 -5.330469 -5.559403 2.466509 1 
115 1 -10.043962 -2.603672 0.183771 1 
116 1 -9.370558 -3.481880 1.072494 1 
117 1 -8.740028 -2.130314 6.231841 1 
118 1 -9.233221 -1.007930 6.751945 1 
119 1 -11.347838 2.542469 3.303044 1 
120 1 -11.756141 2.242022 2.027456 1 
121 1 -10.454891 -1.343836 0.676200 1 
122 1 -11.505382 0.930745 1.598072 1 
123 1 -9.318881 -3.209864 2.432338 1 
124 1 -8.847128 -2.409218 4.884806 1 
125 1 -9.922581 -0.101121 5.957900 1 
126 1 -10.833769 1.651024 4.153492 1 
127 1 -10.610778 -1.228685 1.973392 1 
128 1 -9.995911 -2.076240 2.879945 1 
129 1 -9.729234 -1.665258 4.153115 1 
130 1 -10.219276 -0.539723 4.710098 1 
131 1 -10.789777 0.311753 3.813771 1 
132 1 -11.065002 0.016194 2.501951 1 
133 1 -10.878567 5.687007 5.033306 1 
134 1 -11.035734 4.239836 4.761435 1 
135 1 -8.594859 0.809582 8.153471 1 
136 1 -7.754410 1.266236 9.052946 1 
137 1 -6.888140 6.695213 9.555312 1 
138 1 -7.502528 7.548678 8.711441 1 
139 1 -10.064882 6.182567 5.969386 1 
140 1 -8.373407 7.059590 7.811943 1 
141 1 -10.351736 3.462571 5.662037 1 
142 1 -9.299894 1.751438 7.373573 1 
143 1 -7.641556 2.660594 9.238225 1 
144 1 -7.044759 5.340789 9.380928 1 
145 1 -9.705193 5.297988 6.946092 1 
146 1 -9.834334 3.990183 6.744736 1 
147 1 -9.196724 3.087963 7.607245 1 
148 1 -8.454838 3.547068 8.633934 1 
149 1 -8.187393 4.870951 8.679962 1 
150 1 -8.757892 5.757670 7.796578 1 
151 1 3.851317 -1.030343 -6.287770 1 
152 1 3.233961 -0.084454 -7.128551 1 
153 1 4.173847 5.217802 -6.710111 1 
154 1 4.896942 5.686749 -5.675644 1 
155 1 7.525173 2.254600 -2.436135 1 
156 1 7.216159 0.907274 -2.495202 1 
157 1 4.649043 -0.558778 -5.239217 1 
158 1 6.474891 0.379839 -3.431182 1 
159 1 3.425087 1.304560 -7.082944 1 
160 1 3.990288 3.920912 -6.806376 1 
161 1 5.457543 4.865104 -4.761061 1 
162 1 6.822097 3.143068 -3.274992 1 
163 1 4.890059 0.774451 -5.222689 1 
164 1 4.349337 1.672855 -5.991326 1 
165 1 4.454901 3.020394 -5.879617 1 
166 1 5.285206 3.499649 -4.916060 1 
167 1 6.104244 2.638205 -4.243035 1 
168 1 5.783910 1.300737 -4.299832 1 
169 1 8.176685 4.424445 0.304432 1 
170 1 7.921803 4.117718 -0.956239 1 
171 1 5.430278 7.576374 -4.222621 1 
172 1 4.846058 8.655382 -3.738715 1 
173 1 5.722799 10.042459 1.458344 1 
174 1 6.243944 9.143951 2.259822 1 
175 1 7.652110 5.708535 0.768771 1 
176 1 6.707756 7.985971 1.801954 1 
177 1 7.514966 4.999931 -1.847034 1 
178 1 6.195600 6.698400 -3.429930 1 
179 1 4.942634 8.973203 -2.430843 1 
180 1 5.412584 9.714784 0.112624 1 
181 1 7.271062 6.612970 -0.079806 1 
182 1 7.235345 6.242616 -1.426858 1 
183 1 6.570986 7.208686 -2.220023 1 
184 1 5.861143 8.255962 -1.688168 1 
185 1 6.102915 8.658761 -0.341030 1 
186 1 6.688181 7.764606 0.403916 1 
187 1 2.928924 12.359566 1.996929 1 
188 1 3.865523 11.657224 1.291341 1 
189 1 3.260972 10.331384 -3.920306 1 
190 1 2.159786 10.841383 -4.694864 1 
191 1 -1.964961 12.950345 -1.791697 1 
192 1 -1.798926 13.395939 -0.532942 1 
193 1 1.786516 12.558119 1.363137 1 
194 1 -0.581089 13.252739 0.207441 1 
195 1 3.647102 11.184711 0.086916 1 
196 1 3.299245 10.629121 -2.662561 1 
197 1 1.105580 11.274043 -3.881725 1 
198 1 -1.018427 12.273280 -2.415109 1 
199 1 1.662097 12.373088 0.067232 1 
200 1 2.638415 11.799416 -0.687855 1 
201 1 2.495498 11.454069 -2.037906 1 
202 1 1.236072 11.638056 -2.568337 1 
203 1 0.242050 12.256078 -1.824107 1 
204 1 0.433671 12.734393 -0.544419 1 
205 1 -4.771833 11.694746 -3.534350 1 
206 1 -3.530385 12.157638 -3.391200 1 
207 1 0.583280 9.773147 -6.058051 1 
208 1 0.304219 8.719340 -6.854484 1 
209 1 -4.823832 7.120068 -7.833710 1 
210 1 -5.789546 7.817354 -7.149161 1 
211 1 -4.984602 10.743201 -4.518712 1 
212 1 -5.549090 8.975931 -6.429486 1 
213 1 -2.500025 11.620452 -4.069775 1 
214 1 -0.443658 10.335340 -5.450454 1 
215 1 -0.944591 8.144439 -6.958613 1 
216 1 -3.487878 7.571044 -7.541750 1 
217 1 -3.977423 10.239929 -5.295410 1 
218 1 -2.727443 10.782938 -5.120738 1 
219 1 -1.740428 10.078277 -5.673481 1 
220 1 -1.941291 9.063536 -6.601025 1 
221 1 -3.226403 8.652601 -6.884303 1 
222 1 -4.209677 9.255643 -6.150369 1 
223 1 -4.159277 3.606468 -8.526163 1 
224 1 -3.891901 5.019796 -8.424246 1 
225 1 1.055159 6.689475 -7.973878 1 
226 1 2.089092 5.805264 -7.812635 1 
227 1 1.079342 0.428391 -8.096148 1 
228 1 -0.189410 0.060115 -8.315752 1 
229 1 -3.183371 2.717042 -8.426037 1 
230 1 -1.174035 0.929395 -8.516752 1 
231 1 -2.685563 5.376285 -8.259531 1 
232 1 -0.198998 6.211753 -8.088037 1 
233 1 1.833093 4.411422 -7.715266 1 
234 1 1.462123 1.777652 -8.271422 1 
235 1 -1.844465 3.122490 -8.335144 1 
236 1 -1.670929 4.454243 -8.165473 1 
237 1 -0.417842 4.847721 -8.072011 1 
238 1 0.584079 3.998874 -7.926373 1 
239 1 0.397783 2.662442 -8.308660 1 
240 1 -0.831052 2.221656 -8.444838 1 
241 1 -3.951454 11.302707 7.212622 1 
242 1 -2.808356 10.978638 7.829871 1 
243 1 1.923431 12.039240 5.475819 1 
244 1 1.911209 12.452284 4.165458 1 
245 1 -2.804868 13.494976 1.608318 1 
246 1 -3.961377 13.037329 2.133622 1 
247 1 -3.975309 11.857179 6.035002 1 
248 1 -3.966864 12.518520 3.378328 1 
249 1 -1.609554 11.022482 7.135368 1 
250 1 0.757296 11.790764 6.167416 1 
251 1 0.690542 12.540449 3.479988 1 
252 1 -1.638975 13.239965 2.201650 1 
253 1 -2.769723 12.152758 5.392545 1 
254 1 -1.611239 11.944332 6.042609 1 
255 1 -0.441696 12.288163 5.529001 1 
256 1 -0.349669 12.700224 4.196023 1 
257 1 -1.550923 12.849192 3.521082 1 
258 1 -2.744162 12.418170 4.112851 1 
259 1 -7.099531 9.465782 7.265182 1 
260 1 -6.228107 10.490873 6.966601 1 
261 1 -6.236795 12.521402 1.815392 1 
262 1 -7.178374 12.090077 0.973636 1 
263 1 -10.559209 8.120464 2.352080 1 
264 1 -10.434790 7.428464 3.547103 1 
265 1 -7.936126 8.955272 6.356976 1 
266 1 -9.490274 7.923937 4.479669 1 
267 1 -6.183931 11.019993 5.699365 1 
268 1 -6.225355 12.050587 3.167433 1 
269 1 -7.905814 11.043953 1.319462 1 
270 1 -9.817810 9.237203 2.078362 1 
271 1 -8.052020 9.633650 5.119155 1 
272 1 -7.105478 10.553319 4.837885 1 
273 1 -7.164379 11.103407 3.547757 1 
274 1 -8.102140 10.674318 2.711216 1 
275 1 -8.955350 9.631179 2.949901 1 
276 1 -8.838949 9.101756 4.195795 1 
277 1 -10.870753 6.438256 -0.633501 1 
278 1 -10.903899 7.597205 0.119241 1 
279 1 -7.440678 11.410783 -1.316209 1 
280 1 -6.805981 11.356244 -2.489888 1 
281 1 -7.797387 7.325825 -5.911195 1 
282 1 -8.644074 6.307422 -5.473891 1 
283 1 -10.171475 6.346746 -1.843369 1 
284 1 -8.997624 6.289025 -4.188564 1 
285 1 -9.900545 8.462159 -0.118811 1 
286 1 -8.481231 10.572229 -0.916574 1 
287 1 -7.069351 10.343120 -3.318484 1 
288 1 -7.489575 8.346448 -5.053461 1 
289 1 -9.518095 7.476524 -2.254199 1 
290 1 -9.386419 8.476678 -1.420621 1 
291 1 -8.667526 9.536117 -1.800688 1 
292 1 -8.087522 9.543596 -3.060546 1 
293 1 -8.227955 8.446563 -3.851045 1 
294 1 -8.877499 7.352948 -3.434210 1 
295 1 -11.881355 3.040123 -0.160725 1 
296 1 -11.421556 4.219466 -0.841964 1 
297 1 -9.084257 4.003516 -5.575479 1 
298 1 -8.625504 2.753826 -6.052035 1 
299 1 -9.459627 -1.818659 -3.218969 1 
300 1 -9.943316 -1.666534 -1.959586 1 
301 1 -11.393568 1.827531 -0.582467 1 
302 1 -10.243638 -0.397388 -1.449485 1 
303 1 -10.805231 4.077968 -1.991830 1 
304 1 -9.777029 4.055962 -4.479468 1 
305 1 -8.648333 1.660113 -5.231544 1 
306 1 -9.307941 -0.649925 -3.972499 1 
307 1 -10.849582 1.787190 -1.856428 1 
308 1 -10.641326 2.875220 -2.581291 1 
309 1 -10.074822 2.815985 -3.765958 1 
310 1 -9.462506 1.699701 -4.209171 1 
311 1 -9.883752 0.532102 -3.603078 1 
312 1 -10.464728 0.571009 -2.399671 1 
313 1 -6.551673 -3.729955 -4.376577 1 
314 1 -7.474732 -2.754962 -4.291495 1 
315 1 -6.891677 1.785153 -7.230920 1 
316 1 -5.751268 2.031248 -7.919553 1 
317 1 -1.627183 -1.435126 -7.362913 1 
318 1 -1.825809 -2.621887 -6.625419 1 
319 1 -5.395419 -3.436168 -4.960538 1 
320 1 -2.922221 -2.734678 -5.938880 1 
321 1 -7.378193 -1.669045 -5.125429 1 
322 1 -7.004726 0.618746 -6.500781 1 
323 1 -4.760824 1.076195 -7.780269 1 
324 1 -2.680703 -0.735348 -7.635077 1 
325 1 -5.215787 -2.385840 -5.683262 1 
326 1 -6.262356 -1.529083 -5.949492 1 
327 1 -6.059438 -0.321820 -6.475614 1 
328 1 -4.993662 -0.117625 -7.252741 1 
329 1 -3.891445 -0.921647 -7.091005 1 
330 1 -4.021260 -1.976369 -6.191127 1 
331 1 -5.430514 -5.579902 -1.642651 1 
332 1 -5.508155 -5.225432 -2.906706 1 
333 1 -0.768808 -4.374742 -5.366332 1 
334 1 0.395121 -4.773734 -4.852365 1 
335 1 0.360484 -6.602761 0.269857 1 
336 1 -0.819398 -6.848736 0.926645 1 
337 1 -4.279359 -5.673962 -0.908242 1 
338 1 -1.922824 -6.335923 0.318779 1 
339 1 -4.319065 -5.015389 -3.495164 1 
340 1 -1.967635 -4.551052 -4.716931 1 
341 1 0.362213 -5.233303 -3.557294 1 
342 1 0.442811 -5.983059 -0.971914 1 
343 1 -3.098979 -5.754010 -1.631456 1 
344 1 -3.157673 -5.412828 -3.028413 1 
345 1 -1.980747 -5.312766 -3.670337 1 
346 1 -0.774016 -5.504232 -2.957482 1 
347 1 -0.759879 -5.743539 -1.567229 1 
348 1 -1.946207 -5.970339 -0.948161 1 
349 1 3.287086 -5.146201 1.475263 1 
350 1 2.483707 -5.659914 0.538828 1 
351 1 2.558045 -3.846192 -4.447784 1 
352 1 3.453778 -2.864668 -4.913330 1 
353 1 7.163183 -1.086516 -1.300478 1 
354 1 7.141372 -1.573529 0.029244 1 
355 1 4.287536 -4.345111 1.071096 1 
356 1 6.212431 -2.604265 0.396619 1 
357 1 2.665491 -5.414402 -0.777124 1 
358 1 2.549112 -4.177128 -3.200491 1 
359 1 4.438548 -2.623061 -3.979999 1 
360 1 6.194308 -1.544261 -2.192104 1 
361 1 4.367743 -3.914528 -0.269987 1 
362 1 3.562566 -4.475474 -1.170910 1 
363 1 3.626247 -3.942028 -2.391032 1 
364 1 4.652274 -3.201934 -2.721812 1 
365 1 5.579328 -2.654084 -1.911515 1 
366 1 5.486952 -3.168847 -0.585027 1 
367 1 3.003402 -4.545635 4.837560 1 
368 1 3.507025 -4.492005 3.645198 1 
369 1 7.258052 -0.903815 2.217459 1 
370 1 7.300152 0.216379 2.914184 1 
371 1 4.975315 0.445531 7.831251 1 
372 1 4.212806 -0.610508 8.286750 1 
373 1 3.335080 -3.523895 5.729036 1 
374 1 4.000472 -1.747240 7.524526 1 
375 1 4.541364 -3.687864 3.279929 1 
376 1 6.585143 -2.010675 2.587797 1 
377 1 6.714964 0.247730 4.187133 1 
378 1 5.755038 0.350273 6.692944 1 
379 1 4.325301 -2.695370 5.404685 1 
380 1 4.980842 -2.825583 4.241835 1 
381 1 6.030248 -1.943145 3.896882 1 
382 1 6.218706 -0.876601 4.714356 1 
383 1 5.540769 -0.816550 5.933098 1 
384 1 4.792533 -1.863819 6.389165 1 
385 1 5.251557 3.870916 8.599933 1 
386 1 5.618121 2.713882 8.044317 1 
387 1 8.058395 2.424724 3.182842 1 
388 1 8.220336 3.542567 2.467460 1 
389 1 6.496760 8.370068 4.533877 1 
390 1 5.751473 8.306825 5.658645 1 
391 1 5.328309 5.022181 7.822154 1 
392 1 5.594716 7.128224 6.361426 1 
393 1 6.298095 2.567820 6.924186 1 
394 1 7.416122 2.439413 4.398281 1 
395 1 7.727390 4.759060 2.924836 1 
396 1 6.897664 7.108865 3.989028 1 
397 1 6.161610 4.924824 6.767359 1 
398 1 6.705230 3.689419 6.318102 1 
399 1 7.226727 3.707428 5.036806 1 
400 1 7.226858 4.787377 4.187435 1 
401 1 6.688890 5.969136 4.668236 1 
402 1 6.232670 5.994316 5.957009 1 
403 1 -1.725929 9.436355 9.277828 1 
404 1 -1.923896 8.299165 9.930883 1 
405 1 2.236466 4.752146 10.429037 1 
406 1 3.309309 4.852408 9.713795 1 
407 1 4.013093 9.416391 6.836886 1 
408 1 2.935113 10.264025 6.630299 1 
409 1 -0.590118 9.549021 8.635727 1 
410 1 1.840822 9.970888 7.299818 1 
411 1 -0.994751 7.352631 10.069195 1 
412 1 1.185562 5.647152 10.442736 1 
413 1 3.428173 5.875188 8.846423 1 
414 1 3.777770 8.150460 7.441420 1 
415 1 0.510055 8.852340 8.993658 1 
416 1 0.448777 7.758729 9.752311 1 
417 1 1.468979 6.839557 9.861894 1 
418 1 2.562193 6.964775 9.000106 1 
419 1 2.589691 7.944993 8.155569 1 
420 1 1.660817 8.951917 8.159645 1 
421 1 -4.985560 -1.212062 10.024269 1 
422 1 1.451715 0.862211 10.714960 1 
423 1 -2.423938 -0.261206 10.195218 1 
424 1 -1.140128 0.165463 10.201120 1 
425 1 1.965052 3.447323 10.838315 1 
426 1 -3.184152 8.032026 10.439647 1 
427 1 -0.051874 5.308416 10.703315 1 
428 1 -1.117956 6.177083 10.616908 1 
429 1 -5.715168 7.169537 10.156633 1 
430 1 -7.062012 0.411870 9.899251 1 
431 1 -6.187678 4.465280 9.826828 1 
432 1 -6.445953 3.218211 9.828306 1 
433 1 -5.434524 -3.300272 8.268028 1 
434 1 -0.563134 -6.384954 4.809238 1 
435 1 -3.508858 -4.271032 6.718130 1 
436 1 -2.527467 -5.093413 6.222721 1 
437 1 1.932259 -5.405161 5.196738 1 
438 1 3.481225 -0.480491 9.488686 1 
439 1 2.568664 -3.431829 6.869002 1 
440 1 2.762286 -2.321619 7.663299 1 
441 1 -7.811843 -2.839549 7.031549 1 
442 1 -8.654972 -4.460348 0.520395 1 
443 1 -8.143371 -3.564003 4.425806 1 
444 1 -8.508359 -3.947689 3.240300 1 
445 1 -6.549718 -5.576006 -0.913890 1 
446 1 -0.882251 -7.187033 2.240404 1 
447 1 -4.315649 -5.814452 0.421558 1 
448 1 -3.126924 -6.147378 1.030599 1 
449 1 -8.778612 -0.534900 8.006391 1 
450 1 -11.546525 3.820668 3.716044 1 
451 1 -9.838434 1.143924 6.270130 1 
452 1 -10.279117 2.075259 5.347197 1 
453 1 -12.144045 3.165713 1.158533 1 
454 1 -9.857988 -2.816774 -1.156998 1 
455 1 -11.158045 0.841213 0.302757 1 
456 1 -10.611096 -0.368347 -0.178239 1 
457 1 -7.021023 8.842208 8.578005 1 
458 1 -11.286724 6.524814 3.906110 1 
459 1 -8.628871 7.800850 6.625518 1 
460 1 -9.305510 7.193280 5.624217 1 
461 1 5.017883 7.083452 -5.391420 1 
462 1 8.180641 2.835962 -1.377441 1 
463 1 6.109193 5.402536 -3.714142 1 
464 1 6.751614 4.508637 -2.905560 1 
465 1 7.634482 0.154028 -1.444719 1 
466 1 3.355815 -2.238727 -6.134348 1 
467 1 5.799433 -0.839794 -3.227912 1 
468 1 4.992928 -1.411545 -4.197125 1 
469 1 2.134773 -0.516120 -7.858574 1 
470 1 3.367416 6.140499 -7.323698 1 
471 1 2.632243 2.160866 -7.821424 1 
472 1 2.933269 3.557336 -7.664467 1 
473 1 4.178763 9.525874 -4.553473 1 
474 1 5.075357 11.266079 1.937526 1 
475 1 4.164248 9.901688 -1.817417 1 
476 1 4.414776 10.339932 -0.556302 1 
477 1 6.403490 9.360855 3.640114 1 
478 1 8.656589 3.512551 1.280063 1 
479 1 7.013621 6.945821 2.623304 1 
480 1 7.442633 5.732612 2.062350 1 
481 1 1.871014 10.170813 -5.858125 1 
482 1 -3.199943 13.152281 -2.404791 1 
483 1 -0.155036 11.270444 -4.412044 1 
484 1 -1.120036 11.869862 -3.672796 1 
485 1 -2.806058 13.798001 0.245926 1 
486 1 3.023203 12.476435 3.289378 1 
487 1 -0.495324 13.185777 1.487236 1 
488 1 0.662084 12.828013 2.136891 1 
489 1 1.244727 7.997006 -7.480617 1 
490 1 -4.950073 5.862359 -8.370649 1 
491 1 -1.222053 6.997192 -7.654781 1 
492 1 -2.464871 6.710956 -7.895728 1 
493 1 -6.977626 7.086857 -6.938261 1 
494 1 -5.723458 12.209356 -2.817705 1 
495 1 -6.441864 9.147702 -5.310623 1 
496 1 -6.159274 10.076072 -4.400969 1 
497 1 -0.447208 -1.204288 -7.913026 1 
498 1 -5.439065 3.338848 -8.455427 1 
499 1 -2.475345 0.565595 -8.282526 1 
500 1 -3.546343 1.409945 -8.202198 1 
501 1 -5.150881 13.177663 1.442392 1 
502 1 -5.192329 10.796121 7.789955 1 
503 1 -5.186772 12.316088 4.008843 1 
504 1 -5.126157 11.856028 5.286855 1 
505 1 -2.809566 10.282769 9.014709 1 
506 1 3.092204 11.459495 5.907513 1 
507 1 -0.507758 10.428381 7.573707 1 
508 1 0.726694 10.787413 7.066838 1 
509 1 -7.040730 12.275026 -0.417918 1 
510 1 -11.422768 7.570596 1.389527 1 
511 1 -8.676383 10.466673 0.387640 1 
512 1 -9.531952 9.444809 0.710259 1 
513 1 -8.739391 5.191059 -6.267607 1 
514 1 -11.682476 5.399225 -0.155213 1 
515 1 -9.637262 5.147460 -3.724263 1 
516 1 -10.117864 5.150473 -2.490920 1 
517 1 -7.934369 2.737475 -7.177085 1 
518 1 -8.609394 -2.844948 -3.459029 1 
519 1 -8.141336 0.542418 -5.666257 1 
520 1 -8.281755 -0.650897 -4.956756 1 
521 1 -0.769762 -3.524961 -6.381038 1 
522 1 -6.688333 -4.810868 -3.444160 1 
523 1 -3.058417 -3.862840 -5.158675 1 
524 1 -4.224665 -4.118935 -4.522105 1 
525 1 1.555553 -4.292068 -5.356472 1 
526 1 1.465406 -6.501281 1.042133 1 
527 1 1.549393 -5.078048 -2.836542 1 
528 1 1.610249 -5.591725 -1.617054 1 
529 1 7.787113 -0.880360 0.961756 1 
530 1 3.144008 -5.458885 2.747982 1 
531 1 6.111207 -2.972828 1.760888 1 
532 1 5.114777 -3.813811 2.046594 1 
533 1 8.128170 1.200459 2.604685 1 
534 1 5.069501 1.616544 8.688180 1 
535 1 6.890774 1.377507 4.947359 1 
536 1 6.344194 1.364573 6.241968 1 
537 1 5.110948 9.514557 6.136944 1 
538 1 4.228564 3.851871 9.617251 1 
539 1 4.592152 7.147874 7.299533 1 
540 1 4.445293 5.954477 8.032918 1 

 Bonds 

    1 1 12 497
2 1 12 13
3 1 11 15
4 1 11 521
5 1 11 12
6 1 324 499
7 1 324 329
8 1 317 324
9 1 317 497
10 1 317 318
11 1 13 14
12 1 13 469
13 1 323 500
14 1 323 328
15 1 499 500
16 1 228 497
17 1 228 230
18 1 230 240
19 1 230 499
20 1 227 228
21 1 227 469
22 1 227 234
23 1 316 323
24 1 316 498
25 1 229 235
26 1 229 500
27 1 235 236
28 1 235 240
29 1 234 471
30 1 234 239
31 1 239 240
32 1 471 472
33 1 20 517
34 1 16 17
35 1 16 513
36 1 16 20
37 1 19 498
38 1 19 20
39 1 223 224
40 1 223 229
41 1 223 498
42 1 224 231
43 1 224 490
44 1 236 237
45 1 237 238
46 1 238 239
47 1 233 472
48 1 233 238
49 1 17 493
50 1 17 18
51 1 18 19
52 1 18 490
53 1 209 210
54 1 209 490
55 1 209 216
56 1 231 492
57 1 231 236
58 1 232 237
59 1 232 491
60 1 491 492
61 1 225 226
62 1 225 489
63 1 225 232
64 1 226 470
65 1 226 233
66 1 216 492
67 1 216 221
68 1 3 489
69 1 3 4
70 1 15 525
71 1 325 330
72 1 325 326
73 1 320 330
74 1 320 523
75 1 318 521
76 1 318 320
77 1 14 466
78 1 14 15
79 1 326 327
80 1 327 328
81 1 328 329
82 1 329 330
83 1 152 159
84 1 152 469
85 1 151 152
86 1 151 466
87 1 151 157
88 1 519 520
89 1 322 327
90 1 322 519
91 1 315 322
92 1 315 316
93 1 315 517
94 1 159 164
95 1 159 471
96 1 164 165
97 1 298 305
98 1 298 517
99 1 165 166
100 1 297 298
101 1 297 513
102 1 297 304
103 1 160 165
104 1 160 472
105 1 153 154
106 1 153 470
107 1 153 160
108 1 282 284
109 1 282 513
110 1 154 461
111 1 154 161
112 1 281 493
113 1 281 288
114 1 281 282
115 1 210 212
116 1 210 493
117 1 212 222
118 1 212 495
119 1 221 222
120 1 220 221
121 1 215 491
122 1 215 220
123 1 208 489
124 1 208 215
125 1 2 3
126 1 2 470
127 1 1 2
128 1 1 461
129 1 1 5
130 1 219 220
131 1 214 219
132 1 214 483
133 1 207 208
134 1 207 481
135 1 207 214
136 1 4 481
137 1 4 5
138 1 5 473
139 1 523 524
140 1 340 523
141 1 340 345
142 1 345 346
143 1 333 521
144 1 333 334
145 1 333 340
146 1 334 525
147 1 334 341
148 1 351 352
149 1 351 525
150 1 351 358
151 1 314 518
152 1 314 321
153 1 313 319
154 1 313 314
155 1 313 522
156 1 319 524
157 1 319 325
158 1 352 466
159 1 352 359
160 1 359 468
161 1 359 364
162 1 306 520
163 1 306 311
164 1 321 326
165 1 321 520
166 1 157 163
167 1 157 468
168 1 310 311
169 1 305 519
170 1 305 310
171 1 163 164
172 1 163 168
173 1 309 310
174 1 166 167
175 1 167 168
176 1 304 309
177 1 304 515
178 1 515 516
179 1 161 166
180 1 161 463
181 1 284 294
182 1 284 515
183 1 293 294
184 1 288 495
185 1 288 293
186 1 495 496
187 1 172 179
188 1 172 473
189 1 171 172
190 1 171 178
191 1 171 461
192 1 217 218
193 1 217 222
194 1 211 217
195 1 211 496
196 1 218 219
197 1 190 481
198 1 190 197
199 1 189 196
200 1 189 473
201 1 189 190
202 1 213 218
203 1 213 484
204 1 483 484
205 1 197 202
206 1 197 483
207 1 344 345
208 1 45 518
209 1 41 522
210 1 41 45
211 1 41 42
212 1 332 522
213 1 332 339
214 1 339 524
215 1 339 344
216 1 346 347
217 1 341 527
218 1 341 346
219 1 527 528
220 1 358 363
221 1 358 527
222 1 363 364
223 1 364 365
224 1 365 366
225 1 299 300
226 1 299 518
227 1 299 306
228 1 300 454
229 1 300 302
230 1 467 468
231 1 360 365
232 1 360 467
233 1 311 312
234 1 307 308
235 1 307 312
236 1 158 168
237 1 158 467
238 1 156 158
239 1 156 465
240 1 308 309
241 1 162 167
242 1 162 464
243 1 155 156
244 1 155 162
245 1 155 462
246 1 303 516
247 1 303 308
248 1 463 464
249 1 178 183
250 1 178 463
251 1 183 184
252 1 289 294
253 1 289 290
254 1 179 184
255 1 179 475
256 1 292 293
257 1 287 496
258 1 287 292
259 1 196 475
260 1 196 201
261 1 475 476
262 1 280 287
263 1 280 494
264 1 205 211
265 1 205 206
266 1 205 494
267 1 206 213
268 1 206 482
269 1 198 203
270 1 198 484
271 1 202 203
272 1 203 204
273 1 201 202
274 1 24 25
275 1 24 494
276 1 191 198
277 1 191 192
278 1 191 482
279 1 42 445
280 1 42 43
281 1 331 337
282 1 331 445
283 1 331 332
284 1 337 343
285 1 337 447
286 1 343 348
287 1 343 344
288 1 347 348
289 1 342 528
290 1 342 347
291 1 44 45
292 1 44 454
293 1 43 442
294 1 43 44
295 1 357 528
296 1 357 362
297 1 362 363
298 1 361 366
299 1 361 362
300 1 302 312
301 1 302 456
302 1 353 465
303 1 353 354
304 1 353 360
305 1 7 465
306 1 7 8
307 1 301 455
308 1 301 307
309 1 295 296
310 1 295 301
311 1 295 453
312 1 8 9
313 1 8 462
314 1 296 303
315 1 296 514
316 1 177 182
317 1 177 464
318 1 170 462
319 1 170 177
320 1 277 283
321 1 277 278
322 1 277 514
323 1 283 516
324 1 283 289
325 1 182 183
326 1 290 291
327 1 285 512
328 1 285 290
329 1 184 185
330 1 185 186
331 1 291 292
332 1 286 291
333 1 286 511
334 1 279 286
335 1 279 509
336 1 279 280
337 1 199 200
338 1 199 204
339 1 200 201
340 1 25 509
341 1 23 24
342 1 23 482
343 1 22 23
344 1 22 485
345 1 192 485
346 1 192 194
347 1 104 447
348 1 104 114
349 1 447 448
350 1 338 448
351 1 338 348
352 1 336 338
353 1 336 446
354 1 335 526
355 1 335 336
356 1 335 342
357 1 350 357
358 1 350 526
359 1 101 108
360 1 101 102
361 1 101 442
362 1 102 104
363 1 102 445
364 1 349 350
365 1 349 355
366 1 349 530
367 1 355 532
368 1 355 361
369 1 116 123
370 1 116 442
371 1 115 454
372 1 115 116
373 1 115 121
374 1 356 366
375 1 356 531
376 1 531 532
377 1 121 127
378 1 121 456
379 1 354 356
380 1 354 529
381 1 455 456
382 1 122 132
383 1 122 455
384 1 6 10
385 1 6 7
386 1 6 529
387 1 10 533
388 1 9 10
389 1 9 478
390 1 37 453
391 1 37 38
392 1 169 175
393 1 169 478
394 1 169 170
395 1 36 514
396 1 36 40
397 1 36 37
398 1 40 510
399 1 181 182
400 1 181 186
401 1 175 181
402 1 175 480
403 1 278 285
404 1 278 510
405 1 176 479
406 1 176 186
407 1 511 512
408 1 180 185
409 1 180 476
410 1 173 180
411 1 173 474
412 1 173 174
413 1 269 511
414 1 269 274
415 1 262 269
416 1 262 509
417 1 193 488
418 1 193 199
419 1 195 476
420 1 195 200
421 1 188 474
422 1 188 195
423 1 21 501
424 1 21 22
425 1 21 25
426 1 245 252
427 1 245 246
428 1 245 485
429 1 487 488
430 1 194 487
431 1 194 204
432 1 49 446
433 1 49 50
434 1 109 110
435 1 109 114
436 1 103 448
437 1 103 109
438 1 97 446
439 1 97 98
440 1 97 103
441 1 50 526
442 1 46 530
443 1 46 47
444 1 46 50
445 1 108 113
446 1 108 444
447 1 113 114
448 1 375 380
449 1 375 532
450 1 128 129
451 1 123 444
452 1 123 128
453 1 376 531
454 1 376 381
455 1 127 132
456 1 127 128
457 1 369 370
458 1 369 376
459 1 369 529
460 1 370 533
461 1 370 377
462 1 120 122
463 1 120 453
464 1 119 120
465 1 119 126
466 1 119 450
467 1 387 394
468 1 387 533
469 1 387 388
470 1 388 395
471 1 388 478
472 1 38 39
473 1 38 450
474 1 395 480
475 1 395 400
476 1 39 458
477 1 39 40
478 1 479 480
479 1 263 510
480 1 263 270
481 1 263 264
482 1 264 458
483 1 264 266
484 1 270 512
485 1 270 275
486 1 275 276
487 1 274 275
488 1 174 477
489 1 174 176
490 1 261 268
491 1 261 501
492 1 261 262
493 1 273 274
494 1 268 273
495 1 268 503
496 1 248 258
497 1 248 503
498 1 257 258
499 1 187 188
500 1 187 486
501 1 187 193
502 1 28 474
503 1 28 29
504 1 246 501
505 1 246 248
506 1 252 487
507 1 252 257
508 1 251 256
509 1 251 488
510 1 110 111
511 1 105 436
512 1 105 110
513 1 98 105
514 1 98 434
515 1 48 49
516 1 48 434
517 1 47 437
518 1 47 48
519 1 107 443
520 1 107 112
521 1 112 113
522 1 111 112
523 1 367 368
524 1 367 437
525 1 367 373
526 1 368 375
527 1 368 530
528 1 443 444
529 1 124 129
530 1 124 443
531 1 380 381
532 1 381 382
533 1 129 130
534 1 130 131
535 1 382 383
536 1 126 452
537 1 126 131
538 1 131 132
539 1 377 382
540 1 377 535
541 1 535 536
542 1 394 535
543 1 394 399
544 1 134 141
545 1 134 450
546 1 399 400
547 1 400 401
548 1 133 458
549 1 133 134
550 1 133 139
551 1 396 401
552 1 396 479
553 1 401 402
554 1 266 276
555 1 266 460
556 1 389 390
557 1 389 396
558 1 389 477
559 1 271 272
560 1 271 276
561 1 272 273
562 1 26 27
563 1 26 30
564 1 26 537
565 1 27 477
566 1 27 28
567 1 503 504
568 1 253 254
569 1 253 258
570 1 256 257
571 1 255 256
572 1 243 250
573 1 243 244
574 1 243 506
575 1 244 251
576 1 244 486
577 1 29 486
578 1 29 30
579 1 30 506
580 1 99 433
581 1 99 106
582 1 99 100
583 1 100 107
584 1 100 441
585 1 106 111
586 1 106 435
587 1 435 436
588 1 83 84
589 1 83 90
590 1 83 434
591 1 90 436
592 1 90 95
593 1 84 437
594 1 84 86
595 1 86 439
596 1 86 96
597 1 373 379
598 1 373 439
599 1 117 124
600 1 117 118
601 1 117 441
602 1 439 440
603 1 379 384
604 1 379 380
605 1 125 451
606 1 125 130
607 1 118 449
608 1 118 125
609 1 383 384
610 1 451 452
611 1 378 383
612 1 378 536
613 1 141 146
614 1 141 452
615 1 393 398
616 1 393 536
617 1 146 147
618 1 145 150
619 1 145 146
620 1 398 399
621 1 397 402
622 1 397 398
623 1 139 460
624 1 139 145
625 1 539 540
626 1 392 402
627 1 392 539
628 1 459 460
629 1 265 271
630 1 265 459
631 1 390 537
632 1 390 392
633 1 260 502
634 1 260 267
635 1 259 457
636 1 259 265
637 1 259 260
638 1 408 410
639 1 408 506
640 1 407 408
641 1 407 537
642 1 407 414
643 1 267 504
644 1 267 272
645 1 247 253
646 1 247 504
647 1 254 255
648 1 250 508
649 1 250 255
650 1 95 96
651 1 32 441
652 1 32 33
653 1 33 34
654 1 33 433
655 1 82 433
656 1 82 89
657 1 89 94
658 1 89 435
659 1 94 95
660 1 93 94
661 1 91 92
662 1 91 96
663 1 85 440
664 1 85 91
665 1 31 35
666 1 31 449
667 1 31 32
668 1 374 440
669 1 374 384
670 1 372 438
671 1 372 374
672 1 142 147
673 1 142 451
674 1 135 142
675 1 135 449
676 1 135 136
677 1 371 372
678 1 371 534
679 1 371 378
680 1 147 148
681 1 148 149
682 1 386 393
683 1 386 534
684 1 149 150
685 1 385 386
686 1 385 391
687 1 385 538
688 1 391 540
689 1 391 397
690 1 140 150
691 1 140 459
692 1 413 540
693 1 413 418
694 1 418 419
695 1 138 457
696 1 138 140
697 1 415 420
698 1 415 416
699 1 419 420
700 1 414 539
701 1 414 419
702 1 56 57
703 1 56 60
704 1 56 502
705 1 507 508
706 1 409 415
707 1 409 507