
    60 atoms
    90 bonds
    1 atom types
    1 bond types

    -20.000000 20.000000 xlo xhi
    -20.000000 20.000000 ylo yhi
    -20.000000 20.000000 zlo zhi

    Atoms 

    1 1 14.414399 -15.582113 -4.133842 1 
2 1 15.058724 -16.273049 -3.088772 1 
3 1 15.148451 -14.689630 -4.757785 1 
4 1 16.348474 -16.165807 -2.817992 1 
5 1 16.798324 -16.070449 -1.434335 1 
6 1 14.205051 -16.465321 -1.992584 1 
7 1 14.619209 -16.527996 -0.829272 1 
8 1 16.005293 -16.331416 -0.470306 1 
9 1 13.421451 -13.061127 -4.646481 1 
10 1 12.619391 -14.049407 -3.885199 1 
11 1 14.636140 -13.389076 -5.161706 1 
12 1 13.096787 -15.327768 -3.665944 1 
13 1 12.917935 -15.853429 -2.349761 1 
14 1 11.954949 -13.344039 -2.900903 1 
15 1 11.726307 -13.900779 -1.691783 1 
16 1 12.275594 -15.254697 -1.492285 1 
17 1 15.344950 -11.266227 -4.366646 1 
18 1 14.084737 -11.004299 -3.946771 1 
19 1 15.735314 -12.403749 -4.969490 1 
20 1 13.163239 -11.845406 -4.137724 1 
21 1 12.181446 -11.997175 -3.015339 1 
22 1 14.147860 -10.192243 -2.796435 1 
23 1 13.274584 -10.323787 -1.834901 1 
24 1 12.238378 -11.257936 -1.948935 1 
25 1 17.684878 -12.580493 -3.758798 1 
26 1 17.420815 -11.273213 -3.167164 1 
27 1 16.861177 -13.134878 -4.639670 1 
28 1 16.286707 -10.666414 -3.523247 1 
29 1 15.538212 -9.979182 -2.508866 1 
30 1 17.924421 -11.219029 -1.832049 1 
31 1 17.173161 -10.620103 -0.894371 1 
32 1 15.958930 -10.078848 -1.295841 1 
33 1 17.075205 -15.245456 -3.517139 1 
34 1 18.085350 -14.632973 -2.618565 1 
35 1 16.531186 -14.432628 -4.402857 1 
36 1 18.368035 -13.292110 -2.796930 1 
37 1 18.486810 -12.565567 -1.574078 1 
38 1 17.908552 -15.193270 -1.356858 1 
39 1 18.076533 -14.528584 -0.243446 1 
40 1 18.389034 -13.057123 -0.320400 1 
41 1 15.624229 -10.817959 0.812801 1 
42 1 16.933015 -11.257289 0.328380 1 
43 1 17.404093 -12.401370 0.502252 1 
44 1 14.864819 -11.790034 1.447487 1 
45 1 12.959100 -11.346832 0.244395 1 
46 1 13.670868 -10.356305 -0.465941 1 
47 1 14.983019 -10.121210 -0.259173 1 
48 1 13.458338 -11.996706 1.194064 1 
49 1 12.501248 -13.990987 0.413143 1 
50 1 11.722537 -13.162657 -0.453370 1 
51 1 12.019369 -11.831318 -0.640652 1 
52 1 13.247690 -13.426881 1.236168 1 
53 1 14.754101 -15.301361 1.122604 1 
54 1 13.858390 -15.874889 0.251124 1 
55 1 12.722022 -15.262679 -0.106410 1 
56 1 14.505113 -14.033163 1.552061 1 
57 1 16.626885 -13.411708 1.111824 1 
58 1 17.013912 -14.635936 0.731099 1 
59 1 16.064164 -15.586222 0.718747 1 
60 1 15.455252 -13.020475 1.604581 1 

 Bonds 

    1 1 1 2
2 1 1 12
3 1 1 3
4 1 12 13
5 1 3 11
6 1 3 35
7 1 10 12
8 1 10 14
9 1 9 11
10 1 9 10
11 1 9 20
12 1 11 19
13 1 27 35
14 1 20 21
15 1 18 22
16 1 18 20
17 1 19 27
18 1 17 18
19 1 17 19
20 1 17 28
21 1 6 7
22 1 6 13
23 1 2 4
24 1 2 6
25 1 4 5
26 1 4 33
27 1 13 16
28 1 33 34
29 1 33 35
30 1 34 38
31 1 34 36
32 1 14 15
33 1 14 21
34 1 15 50
35 1 15 16
36 1 25 36
37 1 25 27
38 1 25 26
39 1 36 37
40 1 21 24
41 1 24 51
42 1 26 30
43 1 26 28
44 1 23 24
45 1 23 46
46 1 22 29
47 1 22 23
48 1 29 32
49 1 28 29
50 1 7 8
51 1 7 54
52 1 5 8
53 1 5 38
54 1 16 55
55 1 8 59
56 1 38 39
57 1 39 58
58 1 39 40
59 1 50 51
60 1 40 43
61 1 37 40
62 1 30 31
63 1 30 37
64 1 46 47
65 1 32 47
66 1 31 42
67 1 31 32
68 1 54 55
69 1 53 59
70 1 53 54
71 1 53 56
72 1 58 59
73 1 49 50
74 1 49 55
75 1 49 52
76 1 56 60
77 1 52 56
78 1 57 60
79 1 57 58
80 1 45 48
81 1 45 46
82 1 45 51
83 1 48 52
84 1 44 60
85 1 44 48
86 1 41 44
87 1 41 47
88 1 41 42
89 1 43 57
90 1 42 43
