LAMMPS data file via write_data, version 15 Sep 2022, timestep = 50000000

60 atoms
1 atom types
90 bonds
1 bond types
60 ellipsoids

-20 20 xlo xhi
-20 20 ylo yhi
-20 20 zlo zhi

Masses

1 1

Pair Coeffs # lj/cut

1 1 2.5

Bond Coeffs # fene

1 30 1.8 0 1

Atoms # hybrid

1 1 14.414398780224445 -15.582112955996857 -4.133841885055418 0 0.049431260956372666 0.9078383365165116 -0.4163965720214279 1 11.99524007821832 1 0 0 0
12 1 13.096787386185722 -15.327767798824931 -3.665943942057898 0 -0.34420946679610187 -0.9383554382857908 -0.03176341303174496 1 11.99524007821832 1 0 0 0
3 1 15.14845124805714 -14.689630483618812 -4.757784766643341 0 0.49445474633555664 -0.4565478591933887 -0.739647589120774 1 11.99524007821832 1 0 0 0
35 1 16.531186158434405 -14.432628022332123 -4.402857471467302 0 0.632825472999037 0.4753696908004624 0.6111919320408423 1 11.99524007821832 1 0 0 0
10 1 12.619391169489521 -14.049407195137558 -3.885198946275484 0 0.47143528323902467 0.5656094770880303 -0.6766348299825733 1 11.99524007821832 1 0 0 0
9 1 13.421450509307089 -13.061127345003744 -4.64648064862666 0 -0.15656039166006014 0.9274966401282732 -0.3394684467134069 1 11.99524007821832 1 0 0 0
11 1 14.636139551646483 -13.389076310689047 -5.161706479376321 0 -0.21692553968194372 0.8858833404941903 0.4100658694265501 1 11.99524007821832 1 0 0 0
27 1 16.861176871053665 -13.134878011511535 -4.639670368759706 0 -0.47537808112874613 -0.05492032950662279 -0.8780657363712783 1 11.99524007821832 1 0 0 0
20 1 13.163238524322434 -11.845405875039441 -4.137724299081304 0 0.1730349708061652 -0.905638504000908 -0.3871405415984058 1 11.99524007821832 1 0 0 0
18 1 14.084737428644171 -11.004299406357113 -3.9467714332333346 0 -0.043699998622270836 -0.6214663017842207 0.7822211617356417 1 11.99524007821832 1 0 0 0
19 1 15.735313762880988 -12.403749205238789 -4.969490377452733 0 0.015163942219604187 -0.031044095393661875 0.9994029812831009 1 11.99524007821832 1 0 0 0
17 1 15.34495020891433 -11.266227168574355 -4.366646186672447 0 0.08903434740610056 -0.980560734711539 0.17485288251537856 1 11.99524007821832 1 0 0 0
6 1 14.205051464904027 -16.46532129991879 -1.992583514020059 0 -0.4402670914826978 0.5994415542325687 0.6684569628754035 1 11.99524007821832 1 0 0 0
2 1 15.058724341423833 -16.27304913014307 -3.0887719502412656 0 0.627170912950107 0.5974120530883715 0.4997554249571141 1 11.99524007821832 1 0 0 0
4 1 16.34847423453074 -16.16580718742648 -2.8179915382568788 0 -0.8228631929515251 0.5482943936313612 0.14922943274715966 1 11.99524007821832 1 0 0 0
13 1 12.917935248162795 -15.8534290178344 -2.3497608115386592 0 0.6370342342428366 -0.25793470224266024 0.7264000783188511 1 11.99524007821832 1 0 0 0
33 1 17.0752047582068 -15.245456488582933 -3.517139015635961 0 -0.021980267235558647 -0.9420744137515797 0.3346829347410324 1 11.99524007821832 1 0 0 0
34 1 18.08535043092406 -14.632972501105412 -2.618564691608978 0 0.9531644701070254 0.20700560356734607 -0.22051343046924046 1 11.99524007821832 1 0 0 0
14 1 11.954948842989221 -13.34403928394113 -2.900903476447201 0 0.6191066253916486 -0.31142148248084367 0.7209186130525406 1 11.99524007821832 1 0 0 0
15 1 11.726306815904229 -13.900778783429848 -1.6917834885694012 0 0.9171444443252168 -0.37941294758013133 -0.12203230495219422 1 11.99524007821832 1 0 0 0
25 1 17.68487774540862 -12.5804933952825 -3.7587981896807694 0 -0.19566158960920593 0.1742871167342073 -0.9650598651338039 1 11.99524007821832 1 0 0 0
36 1 18.368035441328015 -13.292110036455068 -2.7969301993931817 0 0.4247283414409837 -0.36998348911297085 -0.8262675436930723 1 11.99524007821832 1 0 0 0
21 1 12.181446375865542 -11.997174979640889 -3.0153394933011386 0 0.12347702848752815 -0.051602993775540174 0.9910048206085033 1 11.99524007821832 1 0 0 0
24 1 12.238377624877012 -11.257936472156588 -1.9489345112143381 0 -0.6051388763743935 -0.38375588818201545 0.6975230165277476 1 11.99524007821832 1 0 0 0
26 1 17.42081507119685 -11.27321262339566 -3.167163719799646 0 0.15274038570106016 -0.5365709739650624 0.8299168419028958 1 11.99524007821832 1 0 0 0
23 1 13.274584238332379 -10.323786884172906 -1.8349008495756745 0 0.9112355927522621 -0.38806595603265415 0.13803806819097214 1 11.99524007821832 1 0 0 0
22 1 14.14785967161944 -10.192243324929839 -2.7964350211617686 0 0.7250773735434871 0.069589146606098 0.6851424326736109 1 11.99524007821832 1 0 0 0
29 1 15.538212189955523 -9.979181743470503 -2.5088656047444085 0 -0.35603019307216077 0.17173939568428567 0.9185576092935037 1 11.99524007821832 1 0 0 0
28 1 16.286706519436283 -10.66641428947919 -3.5232465913174473 0 -0.010237753768799252 0.8925500917705699 -0.4508320331100227 1 11.99524007821832 1 0 0 0
7 1 14.619209498403624 -16.527995801962533 -0.8292717468794 0 0.48555824692096483 -0.6071080870754638 0.6290095066488347 1 11.99524007821832 1 0 0 0
5 1 16.798324023942907 -16.070449404092322 -1.4343352769437292 0 -0.00014569372943595837 -0.3230609404332839 0.9463781525054873 1 11.99524007821832 1 0 0 0
16 1 12.27559380875147 -15.254696837301866 -1.492285175226112 0 0.11532361222365262 0.003658867173815361 0.9933212356305956 1 11.99524007821832 1 0 0 0
55 1 12.722022019489376 -15.262678530205616 -0.10641003631008669 0 0.8254940611446844 -0.451019388426891 0.33932442629125525 1 11.99524007821832 1 0 0 0
8 1 16.005293185559456 -16.331416315162585 -0.47030615910579704 0 0.37853492777129155 0.20716369075748203 0.9021056000762444 1 11.99524007821832 1 0 0 0
38 1 17.908552064461812 -15.193270215416291 -1.3568576400962087 0 0.7260225195439982 -0.6388877070189395 -0.2543890699992159 1 11.99524007821832 1 0 0 0
39 1 18.076532781890887 -14.528584257805857 -0.2434456913401654 0 0.8649935545541099 0.5009865007455316 -0.028260867831574804 1 11.99524007821832 1 0 0 0
50 1 11.722536600189244 -13.16265679467788 -0.4533704023993231 0 0.20430898318984483 -0.3901153759791926 0.8978128049947521 1 11.99524007821832 1 0 0 0
40 1 18.389033625635527 -13.057123270387587 -0.32039974166049223 0 0.08621658384418035 0.9013989733614658 -0.42431897376046523 1 11.99524007821832 1 0 0 0
37 1 18.486810203477674 -12.565567046069933 -1.5740779582874278 0 -0.014874135732116878 0.996182895359461 -0.08601394700549436 1 11.99524007821832 1 0 0 0
51 1 12.019368828667549 -11.831318330435838 -0.6406524249423426 0 0.633944908534387 -0.03171288198801009 -0.7727277308724871 1 11.99524007821832 1 0 0 0
30 1 17.924420542975483 -11.219029077875833 -1.8320493365814459 0 0.26699293798657037 0.687973558551734 -0.6748386131505543 1 11.99524007821832 1 0 0 0
46 1 13.670867707938857 -10.356304728321824 -0.4659406187588671 0 0.42872958991244947 0.9032880028069586 -0.01617784653524658 1 11.99524007821832 1 0 0 0
47 1 14.983019040054065 -10.121210247335117 -0.2591725779822827 0 0.45746990410563665 -0.1154373952029385 -0.8817003428752539 1 11.99524007821832 1 0 0 0
32 1 15.958929554144277 -10.078848214219365 -1.2958407776647494 0 -0.6858669739444654 0.68201697960576 0.25384903699186734 1 11.99524007821832 1 0 0 0
31 1 17.1731611532507 -10.620102579838939 -0.8943709249997398 0 -0.6540224012476528 0.3911311599350442 0.6475114781948816 1 11.99524007821832 1 0 0 0
54 1 13.858389671818637 -15.874889235905535 0.2511235942053946 0 0.279629957929025 -0.9046565666264006 0.3215642752053544 1 11.99524007821832 1 0 0 0
53 1 14.754101459169203 -15.301361334083927 1.1226038597556212 0 -0.13839548286439818 -0.9471293431569245 0.2894696834797441 1 11.99524007821832 1 0 0 0
59 1 16.064164086899265 -15.586222254861745 0.7187473808632535 0 0.5206086010018122 -0.49443489677330676 -0.6960609293845662 1 11.99524007821832 1 0 0 0
58 1 17.013912068149445 -14.635936444011676 0.7310992733824376 0 -0.8831305301971837 0.31873847360548846 0.3442183203684623 1 11.99524007821832 1 0 0 0
49 1 12.501248284084301 -13.99098659895581 0.41314335422210074 0 0.7195596286483447 -0.687457978395299 0.09816042359375339 1 11.99524007821832 1 0 0 0
56 1 14.505112742722835 -14.033162980370081 1.5520608725340288 0 -0.991656280745803 0.020527032101267557 0.12726532053357748 1 11.99524007821832 1 0 0 0
52 1 13.247690046331357 -13.426881388065697 1.2361680322645765 0 0.6515744011833109 0.5493151455009528 -0.5231669624946484 1 11.99524007821832 1 0 0 0
60 1 15.455251781240188 -13.02047508326221 1.6045813716770838 0 0.7105255840391428 0.6697298059411985 0.21590595512815203 1 11.99524007821832 1 0 0 0
57 1 16.626884682569962 -13.411708196340255 1.1118244409751163 0 0.5969337183658258 0.8022871711445987 -0.0023304280178896852 1 11.99524007821832 1 0 0 0
45 1 12.959099546167407 -11.346831994491886 0.24439546080953098 0 -0.15545094755646977 0.9223816772412194 -0.35361991515392616 1 11.99524007821832 1 0 0 0
48 1 13.458338286354765 -11.996706294950968 1.1940643846215002 0 0.4373731531346917 0.20617299886437568 -0.8753270357165298 1 11.99524007821832 1 0 0 0
44 1 14.864818959437551 -11.790034273342606 1.447486676223855 0 -0.8123796646436419 -0.09191560391771153 -0.5758392156061678 1 11.99524007821832 1 0 0 0
41 1 15.624229176435591 -10.817959039632514 0.8128005668311946 0 0.6643449986094065 -0.7293177827946936 -0.16352765674985859 1 11.99524007821832 1 0 0 0
43 1 17.404092942405352 -12.401369546082043 0.502251965763404 0 0.4709602846876456 0.35159041599288793 -0.8090615487272148 1 11.99524007821832 1 0 0 0
42 1 16.933014934841264 -11.25728870051145 0.3283801079704289 0 -0.9589849865276951 -0.1257472123015106 -0.2540382534439948 1 11.99524007821832 1 0 0 0

Velocities

1 -108.98579022422973 216.5232898047291 73.40849083721282 0 0 0
12 93.27405184968686 8.901648432692419 42.87281112550479 0 0 0
3 -261.31330074270693 -84.77962320929448 -96.49207441356361 0 0 0
35 1.3066706696914645 49.01080506406444 -78.41500083799104 0 0 0
10 -148.8935465617945 62.785259966188804 156.06284777736232 0 0 0
9 -31.677869831003605 -62.83603137371635 -104.34521730047854 0 0 0
11 108.1625560942391 -47.17449663094576 -38.02022270486698 0 0 0
27 -156.22220883063008 -11.097331326050437 81.58948874007703 0 0 0
20 -62.447407115924875 5.917467009064289 166.0071566454021 0 0 0
18 18.509022501918373 17.97840856347544 75.97958173154757 0 0 0
19 17.859465431072323 -29.66325174063078 -54.88555737027696 0 0 0
17 -9.710602096542011 92.86450109300937 12.118915316175915 0 0 0
6 53.84364461764767 37.288073877892934 45.41103149975834 0 0 0
2 53.608482487061664 -98.35107342858815 -17.15909195698849 0 0 0
4 -1.8144423540325354 -0.42215231784999396 9.183829440897743 0 0 0
13 -12.050078638496913 -67.50211530913852 83.78627603529502 0 0 0
33 -67.75884433761559 25.78200475000758 -10.416760188038758 0 0 0
34 19.87657671921301 -29.441072362189466 90.15053996172274 0 0 0
14 -16.58181682932909 118.35901991396095 -115.91366201103313 0 0 0
15 -29.93536821592636 12.164070758315567 43.278574777114265 0 0 0
25 -34.99419231264567 1.6372898168721903 96.99130475924413 0 0 0
36 46.483928594504 67.4692329873268 -25.98966622034001 0 0 0
21 86.19408402378627 -37.476465817542234 22.545033456586292 0 0 0
24 76.96285741976266 128.87486506791382 83.95771159126583 0 0 0
26 -32.724728645439214 92.41663358632889 -31.481657194839137 0 0 0
23 -117.93457286552282 19.15688333320068 9.6938490504488 0 0 0
22 33.762766144151904 2.712285566050017 -50.82765509427475 0 0 0
29 -80.84027416740447 -63.96463737807693 55.567075342182505 0 0 0
28 -68.59717854111832 7.245574182899146 -80.68338638614608 0 0 0
7 57.8028028386265 36.44192603021545 -97.2539757697665 0 0 0
5 -54.51883154564679 64.85776643290644 -68.48046477365892 0 0 0
16 156.09539032334106 -98.83620000216649 -171.58667104644607 0 0 0
55 -88.19094444808059 112.39093315723363 -12.301422468879657 0 0 0
8 48.45456366311103 -18.635250871010534 -39.666963786926836 0 0 0
38 50.81033018200199 -24.397339888396022 -123.0413073611669 0 0 0
39 -24.63058505062684 -136.53362781473004 -6.1464525426188885 0 0 0
50 -99.50164050749868 -101.5257317535179 -62.16469076156462 0 0 0
40 -80.34396283990645 -32.55201462429734 156.3502121332696 0 0 0
37 -107.60052508065253 36.81365048492057 8.80419563129707 0 0 0
51 -107.30236942225037 -56.69898092936716 56.25488985445228 0 0 0
30 -24.82936147859575 106.43433356763192 -181.72344882628425 0 0 0
46 -318.8890633527434 4.725855163525743 -94.58086210826862 0 0 0
47 42.813711167143 -28.23067536593046 -81.99952012357258 0 0 0
32 -107.31335522178627 29.17023474533734 -10.100985140971162 0 0 0
31 -80.27584433741373 10.816895211903098 8.565667883816545 0 0 0
54 -68.74223705199852 10.032461615949487 -49.01387358119048 0 0 0
53 71.99415115761072 73.75382805365709 -53.84070478792589 0 0 0
59 -121.94824553651597 11.367323779575358 45.14210741494959 0 0 0
58 -26.5297824929635 16.993624910871386 -100.96203648727422 0 0 0
49 -43.436499384753596 -72.75315457749662 -105.77269357860403 0 0 0
56 -131.54950647596928 204.34619452263638 76.8262085987819 0 0 0
52 103.71070327435169 46.3141040866476 -10.418451571913714 0 0 0
60 8.794787369346409 122.34092597377573 -183.012432123248 0 0 0
57 61.87819602591671 -62.32418925363307 -50.773616444036435 0 0 0
45 -99.19893971336822 -113.18851011263448 -55.876741049786474 0 0 0
48 48.57363548313935 -22.15174645491933 -68.09950526754297 0 0 0
44 5.201156780140142 -30.824512794768943 -24.556728427317612 0 0 0
41 114.27321776420445 -3.2557067986922164 -19.5780012419089 0 0 0
43 21.68850368027552 -64.06075990186585 122.24015576536742 0 0 0
42 -20.08490886589496 27.39533352678953 -215.40864784332464 0 0 0

Bonds

1 1 1 2
2 1 1 12
3 1 1 3
4 1 12 13
5 1 3 11
6 1 3 35
7 1 10 12
8 1 10 14
9 1 9 11
10 1 9 10
11 1 9 20
12 1 11 19
13 1 27 35
14 1 20 21
15 1 18 22
16 1 18 20
17 1 19 27
18 1 17 18
19 1 17 19
20 1 17 28
21 1 6 7
22 1 6 13
23 1 2 4
24 1 2 6
25 1 4 5
26 1 4 33
27 1 13 16
28 1 33 34
29 1 33 35
30 1 34 38
31 1 34 36
32 1 14 15
33 1 14 21
34 1 15 50
35 1 15 16
36 1 25 36
37 1 25 27
38 1 25 26
39 1 36 37
40 1 21 24
41 1 24 51
42 1 26 30
43 1 26 28
44 1 23 24
45 1 23 46
46 1 22 29
47 1 22 23
48 1 29 32
49 1 28 29
50 1 7 8
51 1 7 54
52 1 5 8
53 1 5 38
54 1 16 55
55 1 8 59
56 1 38 39
57 1 39 58
58 1 39 40
59 1 50 51
60 1 40 43
61 1 37 40
62 1 30 31
63 1 30 37
64 1 46 47
65 1 32 47
66 1 31 42
67 1 31 32
68 1 54 55
69 1 53 59
70 1 53 54
71 1 53 56
72 1 58 59
73 1 49 50
74 1 49 55
75 1 49 52
76 1 56 60
77 1 52 56
78 1 57 60
79 1 57 58
80 1 45 48
81 1 45 46
82 1 45 51
83 1 48 52
84 1 44 60
85 1 44 48
86 1 41 44
87 1 41 47
88 1 41 42
89 1 43 57
90 1 42 43

Ellipsoids

1 1 1 1 -0.09735923184194799 -0.7177999794185927 -0.6595823999275393 0.20058770457742742
12 1 1 1 -0.2760816405235173 -0.5016714007872011 0.7044578544397082 0.41933741153903015
3 1 1 1 0.1994668776665821 -0.841094725867261 0.3556716541283185 0.35534532680457087
35 1 1 1 0.3361467932702363 -0.8387002264657233 -0.3699984385029338 -0.2160750309634876
10 1 1 1 0.24239377128668285 0.8227775527206195 0.42773396611235076 -0.2851771600501803
9 1 1 1 -0.2859446966741349 0.5830569737289032 0.5260770038821524 -0.5491112654247843
11 1 1 1 0.6193203388488469 0.0893283160435578 -0.22325803617091733 0.747407933545047
27 1 1 1 -0.14906209658364647 0.48999127624654154 -0.3007819465265639 -0.8044993854615827
20 1 1 1 0.5019357481487349 -0.5784271692559508 0.6122286304310127 -0.19661795105606159
18 1 1 1 0.6858903353900101 0.08777498793758916 -0.618077100557574 -0.373939429690796
19 1 1 1 -0.7011017072849747 -0.12664267508188481 0.694089510497016 -0.10323652603710938
17 1 1 1 -0.4388610420287349 0.5932269038845956 -0.46367581674906033 0.49039531325150487
6 1 1 1 -0.5267509291049848 -0.04898890635323954 0.5766041895798214 -0.6226244086930309
2 1 1 1 -0.6041352005612263 0.6697806476137544 0.4314573657323888 -0.016096120036025615
4 1 1 1 -0.15481455325242524 -0.2541669876783557 -0.6563031611805847 -0.693323702970073
13 1 1 1 0.5245482229040542 -0.7371338270420216 -0.11661300174137032 -0.4097368554370584
33 1 1 1 -0.02394224799669056 -0.6988824186822026 0.6813894284131581 -0.21609854341149293
34 1 1 1 0.7916395384417513 -0.5915142231842305 0.026685101191247486 0.15068400817903757
14 1 1 1 -0.876797802986051 0.20193792455766804 0.35155933481754303 0.25855893217373566
15 1 1 1 0.5960543178152353 0.7767183996638825 -0.11577590610530075 -0.16740285960188392
25 1 1 1 0.6179081316002183 -0.1426840779404782 0.7104600926883734 0.3050856461746947
36 1 1 1 -0.00019878592355505992 -0.8440166652410652 0.219064906087948 0.48953692016045797
21 1 1 1 -0.5168423125713522 -0.542782219844811 0.48083084661911213 -0.45504195707185485
24 1 1 1 0.4079688196769631 -0.17604545999311857 -0.5495835039360065 -0.7074796183556231
26 1 1 1 0.7258307067696819 -0.222575780265406 -0.41895940379210606 -0.4980992121291029
23 1 1 1 -0.7898072596147178 0.5760401800534585 -0.059918366558010416 0.20197027744915536
22 1 1 1 -0.7728011033506111 -0.5150894499325546 0.2861519142540846 -0.23575070561289832
29 1 1 1 -0.08329755155046409 -0.5612899619355557 -0.030874116830293022 -0.8228377029803812
28 1 1 1 0.4348279812861204 0.5529970612998207 0.6967450650843183 0.14023263231162944
7 1 1 1 -0.7106575292038991 0.4875910167817816 0.10163848686526099 0.4968807648996465
5 1 1 1 0.45043738517955373 -0.5450076285410034 -0.2502498832246361 -0.6613983994619083
16 1 1 1 -0.20375916160543284 -0.7184316322195714 0.17911362592146463 -0.6405126875382247
55 1 1 1 0.29769709421694074 0.9078124644810359 -0.2796267208452041 0.09519383602427281
8 1 1 1 -0.7305360335344456 -0.3944420966294104 0.4187826907762047 -0.3679043272653854
38 1 1 1 0.9266616745516456 -0.0656460256918801 0.1608745177297339 -0.33332886129650746
39 1 1 1 0.45970839544790626 0.8492143242031227 0.2350874992568785 0.1106213831774502
50 1 1 1 -0.728865675625143 0.26628803670166296 0.45711016593321757 0.4346214497762206
40 1 1 1 0.7330145207797962 -0.07614462717786279 0.22315556956959273 0.6380386350746955
37 1 1 1 -0.6096912847358915 0.34761971959461635 0.2982876356750673 -0.6468860442685689
51 1 1 1 0.3676759201972156 -0.825703864575142 0.1899077668433109 0.38335699527384826
30 1 1 1 -0.33756140528196565 0.7207973131590807 0.21159551398998333 -0.5672132486693428
46 1 1 1 0.8374219876693556 0.11440808329890953 0.08181473547906506 0.5281491778865756
47 1 1 1 -0.832239407661733 0.19003294553225827 -0.5185168333121611 -0.04904428120698868
32 1 1 1 0.33089368795691926 0.21811895905224804 0.20616676452722252 0.8946668386481135
31 1 1 1 0.4158754262214215 0.006035664116277616 -0.7715047928922316 0.48144735451359694
54 1 1 1 0.36073729947697214 0.7139212699805028 -0.5953703947514387 -0.0756248245551924
53 1 1 1 -0.6559000565312079 0.02444124403870051 0.19349267445853527 0.729217612488263
59 1 1 1 0.6549127994790827 -0.5756678952133575 0.48696916992902034 0.050564088419895396
58 1 1 1 -0.24163080889040592 0.007020476933691109 0.7308277125879212 -0.6383228960425114
49 1 1 1 -0.15394478626499183 -0.9143745496819115 0.3743431481676754 0.009348427447520154
56 1 1 1 -0.06435042050330748 0.005557248253037566 0.9951977591925952 -0.07354971428182919
52 1 1 1 0.21922320710800833 -0.8818891007700088 -0.22387408043454612 0.3522686411219865
60 1 1 1 -0.8781798157277327 0.28993620551420746 0.22436564183803287 -0.3072413818857026
57 1 1 1 0.6699584124715322 -0.591288918162295 -0.29608130768895136 0.3374448103828057
45 1 1 1 -0.5308646210160657 -0.37477630711563653 -0.6315928002597334 -0.42286641914238504
48 1 1 1 0.2867688228688527 0.7977783017842478 0.28906679358756876 -0.44469519030191446
44 1 1 1 -0.19898041620214696 0.23284535994131278 -0.7247767061443292 -0.6171616956295956
41 1 1 1 0.1043578968671446 -0.9062460640831328 0.4073715323614059 0.04331206895100666
43 1 1 1 -0.448722644766532 -0.7308407011227217 -0.421493925097855 0.29472483567181934
42 1 1 1 -0.138817010824569 0.03517590427954848 -0.9676481737187947 0.20772458969156452
