
    72 atoms
    108 bonds
    1 atom types
    1 bond types

    -20.000000 20.000000 xlo xhi
    -20.000000 20.000000 ylo yhi
    -20.000000 20.000000 zlo zhi

    Atoms 

    1 1 -7.366916 -2.478729 1.564580 1 
2 1 -6.619922 -1.872204 2.382661 1 
3 1 -5.479559 -1.230313 2.088931 1 
4 1 -3.851696 0.835780 1.607417 1 
5 1 -4.314484 0.512366 -0.793077 1 
6 1 -4.425614 0.146625 0.492650 1 
7 1 -5.275880 -0.912360 0.771756 1 
8 1 -5.209866 0.648811 -2.858541 1 
9 1 -5.074229 -0.001331 -1.750474 1 
10 1 -5.859854 -1.059797 -1.440378 1 
11 1 -5.952072 -1.529517 -0.179953 1 
12 1 -6.976670 -2.434414 0.164130 1 
13 1 -3.663501 1.743480 -0.896929 1 
14 1 -8.606113 -0.876790 3.333346 1 
15 1 -9.430789 -1.384254 2.288350 1 
16 1 -7.331870 -1.020320 3.370799 1 
17 1 -8.781027 -2.244064 1.540757 1 
18 1 -9.203637 -2.321994 0.174457 1 
19 1 -10.131365 -0.334219 1.746514 1 
20 1 -10.527328 -0.390674 0.468323 1 
21 1 -10.140391 -1.452206 -0.360089 1 
22 1 -7.928024 -2.023465 -1.853124 1 
23 1 -8.123850 -2.403539 -0.620291 1 
24 1 -6.818610 -1.460938 -2.388259 1 
25 1 -6.719383 1.135975 4.195447 1 
26 1 -8.111387 1.457534 3.703018 1 
27 1 -6.363097 -0.031494 3.870870 1 
28 1 -8.923224 0.582397 3.363981 1 
29 1 -9.775818 0.915176 2.255278 1 
30 1 -6.173458 4.123745 2.459124 1 
31 1 -5.834879 2.162384 3.874500 1 
32 1 -6.622686 3.142128 3.177710 1 
33 1 -6.037508 4.939421 0.301494 1 
34 1 -6.923260 4.563216 1.309137 1 
35 1 -6.479513 4.837803 -0.945579 1 
36 1 -10.688391 0.793132 -0.267736 1 
37 1 -9.924931 1.873769 0.176817 1 
38 1 -9.502826 1.988302 1.454159 1 
39 1 -8.503436 2.879057 1.889819 1 
40 1 -7.886637 2.681081 3.022724 1 
41 1 -9.352669 2.754493 -0.688343 1 
42 1 -8.441188 3.635727 -0.313410 1 
43 1 -7.946951 3.773452 0.994322 1 
44 1 -7.757648 4.390544 -1.206590 1 
45 1 -4.815037 3.915519 2.107730 1 
46 1 -3.976678 2.926951 2.551698 1 
47 1 -4.633721 1.993637 3.448414 1 
48 1 -4.286920 0.666572 2.896828 1 
49 1 -5.227488 -0.253292 3.089566 1 
50 1 -4.740707 4.392331 0.752134 1 
51 1 -3.414727 2.153054 1.377087 1 
52 1 -3.458535 2.638821 0.170405 1 
53 1 -4.037229 3.927752 -0.212438 1 
54 1 -8.514545 3.015104 -2.872189 1 
55 1 -7.719751 3.935328 -2.623548 1 
56 1 -6.359953 3.901600 -2.969086 1 
57 1 -5.544064 4.384977 -1.914320 1 
58 1 -4.384046 3.865499 -1.541182 1 
59 1 -10.444031 0.409384 -1.634784 1 
60 1 -9.863664 1.260137 -2.464841 1 
61 1 -9.566330 2.564275 -2.016304 1 
62 1 -8.538102 -0.407293 -3.387817 1 
63 1 -9.112043 -1.329221 -2.508002 1 
64 1 -10.080714 -0.949932 -1.631637 1 
65 1 -9.025536 0.880070 -3.457999 1 
66 1 -6.844209 1.694509 -3.973812 1 
67 1 -6.336225 0.462626 -3.695489 1 
68 1 -7.123982 -0.510082 -3.393574 1 
69 1 -8.151895 1.951363 -3.796390 1 
70 1 -4.080165 2.502302 -2.004033 1 
71 1 -5.959389 2.748491 -3.505714 1 
72 1 -4.977948 2.001850 -2.833854 1 

 Bonds 

    1 1 66 67
2 1 66 71
3 1 66 69
4 1 22 23
5 1 22 24
6 1 22 63
7 1 63 64
8 1 62 68
9 1 62 63
10 1 62 65
11 1 24 68
12 1 60 65
13 1 60 61
14 1 65 69
15 1 67 68
16 1 8 72
17 1 8 67
18 1 8 9
19 1 54 69
20 1 54 55
21 1 54 61
22 1 71 72
23 1 70 72
24 1 55 56
25 1 56 57
26 1 56 71
27 1 57 58
28 1 21 64
29 1 10 24
30 1 10 11
31 1 11 12
32 1 59 60
33 1 59 64
34 1 36 59
35 1 36 37
36 1 9 10
37 1 5 13
38 1 5 9
39 1 5 6
40 1 41 42
41 1 41 61
42 1 13 70
43 1 13 52
44 1 42 43
45 1 42 44
46 1 44 55
47 1 35 57
48 1 35 44
49 1 58 70
50 1 53 58
51 1 18 23
52 1 18 21
53 1 17 18
54 1 1 2
55 1 1 12
56 1 1 17
57 1 12 23
58 1 20 21
59 1 20 36
60 1 19 29
61 1 19 20
62 1 7 11
63 1 6 7
64 1 4 48
65 1 4 51
66 1 4 6
67 1 37 38
68 1 37 41
69 1 38 39
70 1 51 52
71 1 52 53
72 1 34 43
73 1 33 50
74 1 33 34
75 1 33 35
76 1 50 53
77 1 2 3
78 1 2 16
79 1 15 17
80 1 15 19
81 1 14 16
82 1 14 15
83 1 14 28
84 1 16 27
85 1 3 7
86 1 3 49
87 1 29 38
88 1 28 29
89 1 48 49
90 1 39 43
91 1 39 40
92 1 32 40
93 1 47 48
94 1 46 51
95 1 46 47
96 1 30 45
97 1 30 32
98 1 30 34
99 1 45 50
100 1 45 46
101 1 27 49
102 1 26 28
103 1 26 40
104 1 25 31
105 1 25 27
106 1 25 26
107 1 31 47
108 1 31 32
