LAMMPS data file via write_data, version 15 Sep 2022, timestep = 50000000

72 atoms
1 atom types
108 bonds
1 bond types
72 ellipsoids

-20 20 xlo xhi
-20 20 ylo yhi
-20 20 zlo zhi

Masses

1 1

Pair Coeffs # lj/cut

1 1 2.5

Bond Coeffs # fene

1 30 1.8 0 1

Atoms # hybrid

66 1 -6.844208798637101 1.6945087878893892 -3.9738119959295775 0 0.6702529338363531 0.6166002537688573 0.4129953168450482 1 11.99524007821832 1 0 0 0
69 1 -8.15189539399908 1.9513629771195693 -3.7963903373910073 0 -0.628177225237693 0.1336157984721632 -0.7665117038188778 1 11.99524007821832 1 0 0 0
22 1 -7.928023587889819 -2.0234651730088253 -1.853124282582719 0 -0.11818768872751895 0.755580138301417 -0.6443060800874523 1 11.99524007821832 1 0 0 0
63 1 -9.112043299853777 -1.3292205360408602 -2.5080023778873377 0 -0.9127303926070203 0.24256358626860636 0.32876456169719215 1 11.99524007821832 1 0 0 0
62 1 -8.538101982605033 -0.4072929763574302 -3.3878171647519135 0 -0.7296993094489936 0.01856344237114338 0.6835161420164086 1 11.99524007821832 1 0 0 0
68 1 -7.123982395067698 -0.5100820786633121 -3.3935740657897675 0 0.23031553658982384 0.7688562274598314 0.5965021836519775 1 11.99524007821832 1 0 0 0
24 1 -6.818610386044393 -1.46093790643072 -2.3882589940486953 0 0.5263889662128671 -0.04198638074130112 0.8492065709128702 1 11.99524007821832 1 0 0 0
60 1 -9.86366442343591 1.260137466850349 -2.464840929217433 0 -0.21075492304264942 0.33602538997483583 0.9179702063278232 1 11.99524007821832 1 0 0 0
65 1 -9.025535839885276 0.8800701791655884 -3.4579987861804002 0 -0.4568759088629362 0.4768848308302258 0.7508963057737686 1 11.99524007821832 1 0 0 0
67 1 -6.3362251703415735 0.4626255507137938 -3.6954894848797193 0 -0.7134902986621019 0.532631651048422 -0.4552308403617841 1 11.99524007821832 1 0 0 0
8 1 -5.2098658487107645 0.6488105151083755 -2.858540993820587 0 0.9140894747224462 -0.361465283989271 -0.1838022869068764 1 11.99524007821832 1 0 0 0
61 1 -9.566330359285104 2.5642754546499296 -2.0163040691799696 0 -0.6024427769399151 0.7511840772727699 0.2697872913329702 1 11.99524007821832 1 0 0 0
54 1 -8.514545376954322 3.015104172019588 -2.8721891591718607 0 0.6347912415086656 0.5026826052583248 0.5868136655486049 1 11.99524007821832 1 0 0 0
71 1 -5.959389284597536 2.748491479251551 -3.5057144710063373 0 -0.9296278511320336 -0.11636655946571532 0.3496439363663408 1 11.99524007821832 1 0 0 0
72 1 -4.977947867699647 2.00184985661682 -2.8338536570622765 0 0.6639386926622192 -0.017418011623702878 0.7475841258728415 1 11.99524007821832 1 0 0 0
70 1 -4.080165191921839 2.5023015305972716 -2.0040332700385743 0 0.454184670355953 -0.011418155278266617 -0.8908343903014162 1 11.99524007821832 1 0 0 0
55 1 -7.719750703212645 3.9353278886259773 -2.6235481419438456 0 0.6211389857492211 0.5900771192699816 -0.5157473739113646 1 11.99524007821832 1 0 0 0
56 1 -6.359952615093608 3.9016003172527247 -2.9690859935549176 0 0.955099839173007 0.016762519939730408 -0.29580959270612917 1 11.99524007821832 1 0 0 0
57 1 -5.544063911466658 4.384976927981406 -1.9143202309270742 0 0.6392804093720138 0.7276238195129607 0.24876522158557535 1 11.99524007821832 1 0 0 0
23 1 -8.123850338944518 -2.4035392211489692 -0.6202913744420548 0 0.7365288494520195 -0.3051090275774311 0.6036834727037327 1 11.99524007821832 1 0 0 0
64 1 -10.080714120109745 -0.9499319428487392 -1.6316373673194522 0 0.07521301054560658 0.990244091581817 0.11730150097917982 1 11.99524007821832 1 0 0 0
21 1 -10.140391473580669 -1.4522059495625053 -0.36008924533576026 0 -0.2891671004434841 -0.005143295906979706 0.9572648194352079 1 11.99524007821832 1 0 0 0
10 1 -5.859853519352169 -1.0597973260343476 -1.4403784129502244 0 0.5445419564060413 -0.753020719065771 0.36936953633339914 1 11.99524007821832 1 0 0 0
11 1 -5.952072132484764 -1.5295174355809467 -0.17995253788772908 0 -0.8550503508046834 -0.33625847187277347 -0.3947393287760601 1 11.99524007821832 1 0 0 0
59 1 -10.44403148633835 0.4093840332589726 -1.6347843191733311 0 -0.26379981776908834 0.6189098664759987 -0.7398379777516542 1 11.99524007821832 1 0 0 0
36 1 -10.688390677458802 0.7931319185881046 -0.2677364897869054 0 -0.26393694310555876 0.6973935858161455 -0.6663178494732014 1 11.99524007821832 1 0 0 0
9 1 -5.074228837784111 -0.0013312230059381522 -1.75047354388369 0 -0.8625612317548602 -0.13219632713871188 -0.4883771622061917 1 11.99524007821832 1 0 0 0
5 1 -4.314483940598144 0.5123661436594846 -0.7930774718495385 0 0.6447571639003069 0.747424303496733 -0.16014090714635115 1 11.99524007821832 1 0 0 0
41 1 -9.352669308304092 2.754492681634703 -0.6883432212729981 0 0.4397674791927546 0.7900970901448992 0.4270259387777434 1 11.99524007821832 1 0 0 0
13 1 -3.6635011924416805 1.743480134147808 -0.8969291895128354 0 -0.6039179876376601 -0.10071481906748231 0.7906576942191121 1 11.99524007821832 1 0 0 0
42 1 -8.44118849351116 3.635726942798237 -0.31340959115272393 0 0.7582741512189977 0.37013806666905685 0.5366731996248758 1 11.99524007821832 1 0 0 0
44 1 -7.757648318623935 4.3905435672398285 -1.2065904317466603 0 -0.02477855174295801 0.9089863790212334 -0.41608867579806663 1 11.99524007821832 1 0 0 0
35 1 -6.479512570298967 4.837803082072012 -0.9455788410788002 0 -0.6389895824401821 -0.501597051308207 -0.5831746836513343 1 11.99524007821832 1 0 0 0
58 1 -4.38404558477529 3.86549947391014 -1.5411817303885278 0 0.05795349980746489 0.9774622744403018 -0.20299973868470436 1 11.99524007821832 1 0 0 0
53 1 -4.037228965844907 3.9277521163201192 -0.21243833727659986 0 0.9913275034993491 -0.10878860808029299 -0.07372122867736851 1 11.99524007821832 1 0 0 0
18 1 -9.203637141196193 -2.32199388832598 0.1744566736178317 0 0.8640388849783052 0.5032120979148496 0.014642054418101597 1 11.99524007821832 1 0 0 0
17 1 -8.781026872191301 -2.244064033860732 1.5407570667317374 0 0.6546285797398427 0.19997394187382384 0.7290211554949835 1 11.99524007821832 1 0 0 0
1 1 -7.366915751624637 -2.478729104320338 1.5645801306285712 0 0.9355479879497722 -0.2877727021517126 -0.20478484841275366 1 11.99524007821832 1 0 0 0
12 1 -6.976670221702681 -2.434413621100386 0.1641300041198761 0 0.46568011007615573 0.8791204995632698 -0.10143560680099595 1 11.99524007821832 1 0 0 0
20 1 -10.527328387578489 -0.3906735670550438 0.46832261412327303 0 -0.3893896129719982 -0.5428435338951145 -0.7441079404345724 1 11.99524007821832 1 0 0 0
19 1 -10.131365099323624 -0.3342187268175865 1.7465139818470823 0 -0.3706664746068189 -0.5463752008573517 -0.7510529305519292 1 11.99524007821832 1 0 0 0
7 1 -5.275880124691362 -0.9123601063336757 0.7717560397939036 0 -0.39279221733566577 0.8681803642901679 -0.30327731379304057 1 11.99524007821832 1 0 0 0
6 1 -4.425614247801908 0.1466247381006544 0.49265042503798984 0 0.6491639328254889 -0.7599707070292637 0.03210471579045887 1 11.99524007821832 1 0 0 0
4 1 -3.8516959373894073 0.8357801183785416 1.6074171698299713 0 -0.5036729664458239 0.8566979621058597 0.11127508524072417 1 11.99524007821832 1 0 0 0
37 1 -9.92493139982701 1.873769175521326 0.17681731725897332 0 0.6296157855348059 -0.6544836924060962 -0.41861086820563015 1 11.99524007821832 1 0 0 0
38 1 -9.502825563980949 1.9883020980782133 1.4541594658642165 0 -0.3286211928452043 0.9147111292626146 0.23518431413703444 1 11.99524007821832 1 0 0 0
51 1 -3.4147273071995814 2.1530536245383005 1.377086979192766 0 -0.6951232545284088 -0.46533690809239003 0.5479646183658643 1 11.99524007821832 1 0 0 0
52 1 -3.4585352657679285 2.6388207397191996 0.17040465966808216 0 -0.45365646242593033 0.7649715256130534 -0.45718090412923806 1 11.99524007821832 1 0 0 0
43 1 -7.946950637216588 3.773452221495307 0.9943215683169235 0 0.7288421195572132 0.39568962220550846 0.5587655032643036 1 11.99524007821832 1 0 0 0
34 1 -6.923259653502884 4.563215626910931 1.3091371644573078 0 -0.28105716875071113 0.8898698679715742 -0.3593584366201618 1 11.99524007821832 1 0 0 0
33 1 -6.037508323586087 4.939420816930502 0.30149350108210865 0 0.6511276889184892 -0.2059262250594771 -0.7304978593783976 1 11.99524007821832 1 0 0 0
50 1 -4.74070699737595 4.392330928685253 0.7521343241520699 0 -0.6001779615888018 0.04955586801689338 0.7983299007103537 1 11.99524007821832 1 0 0 0
2 1 -6.619921574291317 -1.8722043676287934 2.3826608974529773 0 -0.20213538767743444 0.9771599180572084 -0.06557270461803028 1 11.99524007821832 1 0 0 0
15 1 -9.43078927760576 -1.384254103214487 2.288349921822574 0 -0.28651556052364535 0.33917776028657187 -0.8960286158961697 1 11.99524007821832 1 0 0 0
14 1 -8.606112574713052 -0.8767900513610082 3.3333459452241634 0 -0.11194470407485929 -0.17255001645714907 0.978618860972049 1 11.99524007821832 1 0 0 0
16 1 -7.331870044785437 -1.0203196114408475 3.3707987069901786 0 0.20345743020851628 0.12075747402222736 -0.9716083092279097 1 11.99524007821832 1 0 0 0
3 1 -5.479558578053492 -1.230312737503138 2.0889309134651173 0 -0.26271663533627654 0.6924752626533827 -0.671906228673849 1 11.99524007821832 1 0 0 0
49 1 -5.2274880393726155 -0.2532920921587984 3.0895662608910173 0 0.3400934619231341 0.8518670234984224 0.3983202372878836 1 11.99524007821832 1 0 0 0
29 1 -9.775817555652795 0.9151759585183623 2.255277868291471 0 0.7558062639738016 0.040433841386018965 -0.6535457105732807 1 11.99524007821832 1 0 0 0
28 1 -8.923224217591283 0.5823972293308511 3.3639806187847285 0 -0.12743608758127156 -0.9221364908202642 0.3652729607836688 1 11.99524007821832 1 0 0 0
48 1 -4.286919844898378 0.6665723293228936 2.8968280821447485 0 0.8606668774871493 -0.23035405481893462 -0.454080978928863 1 11.99524007821832 1 0 0 0
39 1 -8.503435963264034 2.879056582627399 1.8898194592561408 0 -0.8244992508350693 0.4643473878360405 -0.32339215943225175 1 11.99524007821832 1 0 0 0
40 1 -7.886636787448059 2.6810811759527478 3.0227235325593993 0 -0.17084742655953317 0.5715114482723112 0.8026118746515472 1 11.99524007821832 1 0 0 0
32 1 -6.622685812627614 3.142128053437617 3.177709504774369 0 -0.1380532400697595 0.6052699738560565 0.7839576274611596 1 11.99524007821832 1 0 0 0
47 1 -4.633721328035736 1.9936368476033413 3.4484140289153786 0 0.4194626193182042 0.8938694588140399 -0.15826718419876945 1 11.99524007821832 1 0 0 0
46 1 -3.9766778752751395 2.926951291421493 2.5516980156646984 0 -0.14894842526386454 -0.017221331089788183 -0.9886949946100216 1 11.99524007821832 1 0 0 0
30 1 -6.173457691748869 4.123744596149482 2.45912413997112 0 -0.9005855125416049 -0.4155483293435154 -0.12753556594137827 1 11.99524007821832 1 0 0 0
45 1 -4.815036902329708 3.9155194231303225 2.1077303655869755 0 -0.24283310397608382 -0.9421147035172509 -0.23119681881449614 1 11.99524007821832 1 0 0 0
27 1 -6.363096646100767 -0.03149386474853585 3.870869917401309 0 0.43302877897412684 -0.7481829714368934 -0.5027010223105156 1 11.99524007821832 1 0 0 0
26 1 -8.111387089176366 1.4575337493980267 3.7030178350335383 0 0.6327121684007228 0.4727216158285497 -0.6133592633083 1 11.99524007821832 1 0 0 0
25 1 -6.719382776682333 1.1359751937056501 4.19544748267607 0 -0.6543927399776214 -0.6177024355162742 0.43613512014265055 1 11.99524007821832 1 0 0 0
31 1 -5.834878938631861 2.1623839001980567 3.874500157513619 0 -0.38232242211007855 -0.8821081346660846 0.2751632321146921 1 11.99524007821832 1 0 0 0

Velocities

66 -2.39117992759909 -46.93018309608637 39.327775118025315 0 0 0
69 146.09814328174227 114.8995112111194 131.1180587338721 0 0 0
22 124.30820023282598 -4.785186806537126 -16.470625584679098 0 0 0
63 26.03175616055563 -152.30536383581622 15.32996926594918 0 0 0
62 167.4208011855149 -99.36524469866839 77.24611880919372 0 0 0
68 -56.98093074766466 100.57683181314698 78.454308860731 0 0 0
24 -26.52952080981438 148.1267902967606 77.91974727913318 0 0 0
60 -114.48592148611343 35.55750722307165 -200.1220945228435 0 0 0
65 -2.9613350474262674 115.12978750616992 71.90376553977443 0 0 0
67 -44.75362949926362 35.92870261224827 -27.367896185750517 0 0 0
8 -39.49701767327866 126.10780366150871 158.78868785574372 0 0 0
61 -109.37840605796241 46.785418045604516 84.46012066557427 0 0 0
54 -149.09573014501092 -5.280668256935248 -55.59303631956554 0 0 0
71 -8.312665800653326 70.79047060353811 5.961973240015382 0 0 0
72 1.5427818944152953 65.18687592294584 76.80029201949168 0 0 0
70 37.09882880606593 54.23962131615868 134.68732872723356 0 0 0
55 -12.967465577072097 52.22198048719796 14.624357409963837 0 0 0
56 -20.284441294078295 -3.3320903785503244 -69.4253466206807 0 0 0
57 33.064983136897794 -45.518562999836185 70.36524931363901 0 0 0
23 -76.00688979085135 47.70001584365916 27.587428807320073 0 0 0
64 120.5169778976584 -154.02329152921112 -76.76319894679001 0 0 0
21 29.22584203158553 26.363366268765578 16.577673311792722 0 0 0
10 -44.39952019745836 -189.70567714258738 7.655766833206016 0 0 0
11 94.97365748029952 -124.30387899299612 -130.99135684119733 0 0 0
59 133.37828045929533 -18.762725385403925 -17.15737527580902 0 0 0
36 -161.52411990186496 162.26092622553472 -141.7639163872937 0 0 0
9 0.9426044609646027 128.79621431778492 -50.458321380366094 0 0 0
5 -117.43864800486494 -42.101389570307276 -131.7152757743898 0 0 0
41 108.86801190271252 27.905446385797134 43.25620688322786 0 0 0
13 34.884399088810746 2.5305553107989454 -7.235662308191696 0 0 0
42 -42.86354986201192 -191.1635956459326 6.268755730125164 0 0 0
44 109.6387728846089 12.240236670408432 7.328962081698165 0 0 0
35 -225.2491176105919 55.50084785262547 132.21317826400139 0 0 0
58 0.6740198422367243 24.363671172957705 70.33482346005042 0 0 0
53 82.06517423468307 -139.00864068642343 -129.16868950093175 0 0 0
18 -28.401499516859424 -115.88314225647338 -181.13799573231452 0 0 0
17 66.94655738942355 -94.3905734207938 50.428942875597365 0 0 0
1 2.2263567006336675 108.13086218223425 -19.396344445989758 0 0 0
12 -97.83115090136073 -8.820811976785393 143.16400437141814 0 0 0
20 -121.47127317476277 38.3611905093487 30.261471998795795 0 0 0
19 26.93643649228362 28.534768652869225 -39.98544641596612 0 0 0
7 -128.30132630465874 -114.78674964048956 118.32846743101355 0 0 0
6 52.30361586803846 65.6045278691821 -94.54579579848752 0 0 0
4 18.270813138640158 16.04870351409317 -50.155852551507294 0 0 0
37 29.12091433290062 11.526021494505157 58.2558823473788 0 0 0
38 1.126460483756759 -23.10647945950678 52.14479003153381 0 0 0
51 41.01928389705162 -123.17348029638904 -30.751902832328362 0 0 0
52 -33.65651504165395 -48.45608150164141 68.9188450212727 0 0 0
43 -18.490319114776902 20.828712526854005 2.056649399738586 0 0 0
34 -35.983853452011815 -45.42009305949438 57.33165585173789 0 0 0
33 -183.33708204665052 94.35981074372953 53.68238869400398 0 0 0
50 71.10596324110973 -14.38315531257743 -79.02312556472577 0 0 0
2 -40.312744024327166 13.124176314658923 60.07012733495439 0 0 0
15 101.11887040177064 -61.776988068196644 -66.64264371457854 0 0 0
14 -0.2697698862894953 -205.6985251527545 -44.358262463011755 0 0 0
16 14.692713651307578 59.211445962087545 105.33691023564279 0 0 0
3 215.53964377134417 21.195784121296033 88.7588321209818 0 0 0
49 162.17097174089153 -98.4493206278166 110.11749747747983 0 0 0
29 18.85206920210314 29.758336201585088 -36.933572444154215 0 0 0
28 -53.074161142404364 -4.019404898989109 -46.32190421531786 0 0 0
48 28.192481351618227 32.796392041038885 63.27171623057191 0 0 0
39 -14.95311384033748 -62.98155443270814 163.60064730655495 0 0 0
40 -48.58730656140748 77.865999957398 -67.39977372974654 0 0 0
32 -115.54686737927247 70.24879631964164 -82.97078266337616 0 0 0
47 38.40618970594963 89.8978221500588 39.19774086384355 0 0 0
46 -60.37986130491442 177.10838136551334 -71.27138597581992 0 0 0
30 -11.780572099203276 71.88486131368722 -196.23591575192182 0 0 0
45 -0.7936612950845531 40.1298126822415 25.53741257169701 0 0 0
27 -61.03526097804412 -48.25330433695005 68.54882255628374 0 0 0
26 -159.49596111856098 -44.94982991818806 21.687566735540777 0 0 0
25 -32.63063967797882 -157.58060121838787 80.06977607275547 0 0 0
31 -99.38524147998987 -12.792644166263177 -0.5275184535213597 0 0 0

Bonds

1 1 66 67
2 1 66 71
3 1 66 69
4 1 22 23
5 1 22 24
6 1 22 63
7 1 63 64
8 1 62 68
9 1 62 63
10 1 62 65
11 1 24 68
12 1 60 65
13 1 60 61
14 1 65 69
15 1 67 68
16 1 8 72
17 1 8 67
18 1 8 9
19 1 54 69
20 1 54 55
21 1 54 61
22 1 71 72
23 1 70 72
24 1 55 56
25 1 56 57
26 1 56 71
27 1 57 58
28 1 21 64
29 1 10 24
30 1 10 11
31 1 11 12
32 1 59 60
33 1 59 64
34 1 36 59
35 1 36 37
36 1 9 10
37 1 5 13
38 1 5 9
39 1 5 6
40 1 41 42
41 1 41 61
42 1 13 70
43 1 13 52
44 1 42 43
45 1 42 44
46 1 44 55
47 1 35 57
48 1 35 44
49 1 58 70
50 1 53 58
51 1 18 23
52 1 18 21
53 1 17 18
54 1 1 2
55 1 1 12
56 1 1 17
57 1 12 23
58 1 20 21
59 1 20 36
60 1 19 29
61 1 19 20
62 1 7 11
63 1 6 7
64 1 4 48
65 1 4 51
66 1 4 6
67 1 37 38
68 1 37 41
69 1 38 39
70 1 51 52
71 1 52 53
72 1 34 43
73 1 33 50
74 1 33 34
75 1 33 35
76 1 50 53
77 1 2 3
78 1 2 16
79 1 15 17
80 1 15 19
81 1 14 16
82 1 14 15
83 1 14 28
84 1 16 27
85 1 3 7
86 1 3 49
87 1 29 38
88 1 28 29
89 1 48 49
90 1 39 43
91 1 39 40
92 1 32 40
93 1 47 48
94 1 46 51
95 1 46 47
96 1 30 45
97 1 30 32
98 1 30 34
99 1 45 50
100 1 45 46
101 1 27 49
102 1 26 28
103 1 26 40
104 1 25 31
105 1 25 27
106 1 25 26
107 1 31 47
108 1 31 32

Ellipsoids

66 1 1 1 -0.038911783152653145 0.9130237346586656 0.34667866103948525 0.21139403743174273
69 1 1 1 0.20449610624992517 0.37959548194067433 0.5579771502014972 -0.7090487377267253
22 1 1 1 -0.04370295054029804 0.6625678891633013 0.5357886871588683 -0.5215595144145448
63 1 1 1 0.20389529307442533 0.045403889245129905 -0.6419212613347814 0.7377684532086428
62 1 1 1 -0.2511136444895639 0.26850006112973634 0.6534371574877184 0.661717111716833
68 1 1 1 -0.5489976069289494 -0.5601422996714306 -0.0838732999334828 -0.6146604764122678
24 1 1 1 0.7465830022034385 0.4536610011091256 -0.42784034029239193 0.2318580602697623
60 1 1 1 0.08829156848421064 0.6219542888454691 0.16210858560005476 0.7609850642398144
65 1 1 1 -0.5020411679133424 -0.13970222363562804 0.5714329231790078 -0.6339577026415582
67 1 1 1 -0.3564958165550973 -0.12714394774295512 -0.8027957862820111 -0.4607212550543967
8 1 1 1 0.8056979306793047 -0.5548833948320218 0.18215460181632284 -0.09886841596745488
61 1 1 1 -0.2526005684354032 0.36738476336962267 0.8655911342132299 -0.2279767024092852
54 1 1 1 0.22039648859489713 -0.8768243886716268 -0.34872711874318074 -0.24696918005845725
71 1 1 1 -0.15917050706007288 -0.09925131795710578 0.9549592859684187 -0.22992757057104898
72 1 1 1 0.7974880147524152 -0.44269878321197287 -0.3536659436108373 -0.207246360640535
70 1 1 1 0.7225276629519037 0.4528201756185745 0.4390653622191154 -0.2830711439221959
55 1 1 1 -0.8994835518043648 -0.03871476343741744 -0.30025246452079035 -0.3150856465702318
56 1 1 1 -0.670966776326682 -0.7261910937572036 -0.10774447283613096 0.10412112651503859
57 1 1 1 -0.428340490110681 0.7975992911341813 0.4190304817072058 -0.06908871625830117
23 1 1 1 -0.13180446178531197 0.9224380784526915 -0.11625260932025137 0.34383267165908354
64 1 1 1 -0.7077002651227492 -0.19174681227596416 -0.09938667365960659 -0.6726929342769074
21 1 1 1 -0.23866405403478216 -0.5463111925358481 0.3253571167795948 -0.7339797659217938
10 1 1 1 -0.6387088677795402 0.6035908882867588 -0.14152859070538382 0.45573970620292376
11 1 1 1 -0.2128429541495576 0.16484144341320078 -0.9620362484026015 0.04484899287374964
59 1 1 1 -0.3499769769884859 -0.4955968186877884 -0.768345394972162 0.20382655104185124
36 1 1 1 0.5594973795572075 0.23450844487105124 0.7286709623332689 0.3178161421405265
9 1 1 1 0.112126947290327 0.2369534380715378 0.17051859826584548 -0.9498442101328414
5 1 1 1 -0.37832810969682645 0.8241640755112901 0.3376878153265827 -0.25216732030500355
41 1 1 1 -0.20169516464030907 -0.8241376099639525 -0.39243813230232505 -0.35511768854660775
13 1 1 1 -0.4388223874564748 0.07399944897206606 0.8571594905278461 0.25930021522720226
42 1 1 1 0.8560173044803062 -0.382585219316912 -0.3418186513901431 0.06342660287548961
44 1 1 1 -0.5752800158356006 0.3958075637335802 0.12347573400942961 -0.7050836964377433
35 1 1 1 -0.3125539779282138 -0.2877763361730054 -0.10505460146536971 0.8991431042559596
58 1 1 1 0.6594837986229737 -0.30668855416781626 -0.15681355838854322 0.668156237718238
53 1 1 1 0.6331360388390763 0.7712344054000951 -0.018694037368817015 -0.06314096306819239
18 1 1 1 -0.7212268595016833 0.6417563865069764 0.1789124804297901 -0.1896599110442354
17 1 1 1 0.9065283141887734 0.0743014498107657 -0.3904320118747096 0.14229741471138976
1 1 1 1 -0.19233852543763155 -0.964769343214928 0.12308982601189708 0.1306709637121988
12 1 1 1 -0.5961484764786413 -0.6143671939730121 -0.40975754041223467 -0.3150534923425512
20 1 1 1 0.37896244832802245 0.40211025387476984 0.10433169342015244 -0.8269278712403413
19 1 1 1 0.3969795910307637 -0.39632558206812507 0.8178416276151509 0.12832891117441278
7 1 1 1 -0.14721695901912535 -0.530971805569117 -0.8327081336874372 0.05471081025371514
6 1 1 1 -0.8770767375211507 0.235198560607839 -0.09131033853915828 0.4087547622513041
4 1 1 1 -0.49141185905729784 -0.08171842849038578 -0.03087906483665365 -0.86653503482417
37 1 1 1 -0.7693604888110201 0.472114743493434 -0.38724101002625605 0.18771389769125257
38 1 1 1 0.1571638366383587 -0.5576638163181372 -0.8148362183468011 0.01877588061547122
51 1 1 1 0.2725115664401998 0.2795993900066739 -0.9165494459824258 0.08659526738519017
52 1 1 1 -0.2361046382952725 -0.466290004785105 -0.8504559428059976 0.05960638018641022
43 1 1 1 0.9150513398703557 0.16462717023648704 -0.2580674398157109 0.262640698918423
34 1 1 1 -0.40776209153605864 0.4395469170984859 0.3402312377652196 -0.7244109946874786
33 1 1 1 -0.13780537030642462 -0.8980943850030206 0.05104066693127479 0.41452503646941063
50 1 1 1 -0.20169400025940334 -0.3990370276866032 0.3532664819686858 -0.8217613847777645
2 1 1 1 -0.6286718514267969 0.06086057332038716 0.022869543205166917 -0.7749481775140221
15 1 1 1 -0.08281959866998595 -0.5915092001096176 -0.3852018079737447 0.703475193162901
14 1 1 1 0.5290241996422383 -0.40516792093582593 -0.5042493753597288 -0.5492767239622968
16 1 1 1 -0.7022976025428956 0.32940369240000794 -0.5339451252898588 -0.33641326976642694
3 1 1 1 -0.2473927842712353 0.5544713632121931 0.2953178664117049 -0.7376623044769041
49 1 1 1 0.8025097299627998 0.16132223739026522 -0.13598362879358578 0.55808755741242
29 1 1 1 -0.6352769427931341 -0.6887135383759418 -0.2523227442855662 0.24172319030101347
28 1 1 1 0.27832374406613697 0.5990140646916162 -0.7495575467992566 -0.04337658154944995
48 1 1 1 -0.9383943144119665 -0.2230460701802877 -0.20139415967788957 0.1706076015424336
39 1 1 1 0.22847507023951097 0.18854579513082706 0.9198695422430649 0.2570790747436839
40 1 1 1 -0.07298590545632218 -0.639725991597148 -0.37029538759036595 -0.6695558521953694
32 1 1 1 -0.06569508177882694 -0.653190275643471 -0.3989275400749658 -0.6402213974904435
47 1 1 1 -0.1672856074173825 0.8256796201978704 0.5012981416579363 -0.1974053279706443
46 1 1 1 0.1534721995926342 -0.6340126744161084 0.19112324394758354 0.7334481019505639
30 1 1 1 0.0870143360169866 0.20526994192214407 -0.746391806046392 -0.6270502596583526
45 1 1 1 -0.6113387339867518 -0.06963045554521143 -0.10003038290738767 0.7819274099834609
27 1 1 1 -0.7472639257033956 -0.3976317578230056 -0.05453416597615006 0.529633491439337
26 1 1 1 -0.2420816883979782 -0.8704898278226723 -0.342976805627276 0.2569257219535412
25 1 1 1 -0.3934686828608883 0.13411198909458838 0.2568354871089719 0.8724860471952017
31 1 1 1 -0.5344457684468708 -0.15233682921143735 0.4556380081885765 0.6953813461324556
