LAMMPS data file via write_data, version 15 Sep 2022, timestep = 50000000

96 atoms
1 atom types
144 bonds
1 bond types
96 ellipsoids

-20 20 xlo xhi
-20 20 ylo yhi
-20 20 zlo zhi

Masses

1 1

Pair Coeffs # lj/cut

1 1 2.5

Bond Coeffs # fene

1 30 1.8 0 1

Atoms # hybrid

89 1 -10.86463726388502 -1.1406719415543793 -3.9101368539020593 0 -0.3305195169795493 0.45383434900134845 -0.8275211372298161 1 11.99524007821832 1 0 0 0
96 1 -11.127887852648989 0.20048718649395042 -3.7864218847065554 0 0.366578453025709 0.930385432701324 -0.001784487166727633 1 11.99524007821832 1 0 0 0
71 1 -10.0287452991945 0.9086807790824133 -3.5324978168375774 0 0.40579003111731266 0.7295938307873584 -0.5504791483088505 1 11.99524007821832 1 0 0 0
23 1 -11.075367213119108 -3.095303798105787 -2.5849474769183005 0 0.5560577742186154 0.4485857747570339 -0.6996931859155633 1 11.99524007821832 1 0 0 0
22 1 -11.658332503366267 -2.045482268934688 -3.2698285527572355 0 0.8396364737518639 0.4638360125631664 -0.28260705121252333 1 11.99524007821832 1 0 0 0
24 1 -9.729637479201909 -3.2276941346668577 -2.3622110870425135 0 -0.11578067564999056 -0.9787287120508955 0.1693662993432495 1 11.99524007821832 1 0 0 0
25 1 -8.859943658777905 -2.2258134508957244 -2.873059661421767 0 -0.9277033551358254 0.09537575515376777 0.36092928697818494 1 11.99524007821832 1 0 0 0
26 1 -7.740483130365808 -2.025653386551386 -2.2095604195328153 0 -0.9869922569188618 -0.14445445004925278 -0.07056342284200309 1 11.99524007821832 1 0 0 0
21 1 -12.893914904485248 -1.6226435567572002 -2.871677687876946 0 -0.34720315182245803 0.934353186834122 0.08021280207966434 1 11.99524007821832 1 0 0 0
95 1 -13.348079776618574 -0.3361927235188401 -3.1350756068341052 0 -0.916222404562531 0.12782186049701608 0.3797342193649861 1 11.99524007821832 1 0 0 0
90 1 -9.421303691173856 -1.276423658613978 -3.6942606472130604 0 0.5796677222668303 -0.7309528464652464 -0.36012951560006656 1 11.99524007821832 1 0 0 0
40 1 -7.267902841427942 -0.6957763616515455 -1.9946282199607697 0 -0.9718398940211999 -0.2354294693137906 -0.010009264083335731 1 11.99524007821832 1 0 0 0
93 1 -14.29637697543697 0.002216240650763618 -2.1765788957402514 0 -0.35054120714780374 -0.9363401055106128 -0.019699464554540552 1 11.99524007821832 1 0 0 0
94 1 -12.39649507126439 0.5832352946681943 -3.548031544319376 0 0.8181619068502307 0.11777296917379934 -0.5627971409941434 1 11.99524007821832 1 0 0 0
78 1 -9.013836640649709 0.003217898403807427 -3.3485510233777362 0 0.6561359731694286 0.5920392685566427 -0.4679477419540803 1 11.99524007821832 1 0 0 0
79 1 -7.9843143307217925 0.37414732759581926 -2.4194266827971678 0 -0.4329855362013878 -0.5962950699116627 0.675984996164443 1 11.99524007821832 1 0 0 0
64 1 -13.606836464128559 2.2396703232601585 -2.4112800422639316 0 -0.26273499544119305 -0.6233125893993479 0.7365132300690844 1 11.99524007821832 1 0 0 0
63 1 -12.582928445747136 1.8227751532928882 -3.189049763301453 0 -0.9727320918202554 -0.22427705183935281 -0.05909383691416854 1 11.99524007821832 1 0 0 0
73 1 -11.394207507206174 2.6443836244895884 -2.9327214386341 0 0.11301719612263222 0.2694641435738063 -0.9563556810667324 1 11.99524007821832 1 0 0 0
74 1 -11.696491047492707 3.4820230188055588 -1.9520503159927034 0 -0.33367077684700563 0.03141943976992123 -0.9421659256642962 1 11.99524007821832 1 0 0 0
72 1 -10.196154158550533 2.0755187297861357 -2.860586106242868 0 0.6031147725558738 0.5870527840695114 -0.5400199994825311 1 11.99524007821832 1 0 0 0
86 1 -9.336570622268626 2.2108695578160926 -1.767644703790568 0 0.3565470479390293 0.6072842848787263 0.7099859153147319 1 11.99524007821832 1 0 0 0
1 1 -10.691741067837645 -3.756073946854978 -0.42355964724260514 0 -0.2112715818588337 0.4458159464493943 -0.8698347317682229 1 11.99524007821832 1 0 0 0
17 1 -9.549133767403678 -3.7031114861177525 -1.0289327936803287 0 0.6637210683263506 0.7141687512120767 -0.22234508821179466 1 11.99524007821832 1 0 0 0
18 1 -8.367174590312551 -3.524859040340383 -0.37541116707972016 0 0.30026317290318516 0.1962603124622026 -0.933447329392693 1 11.99524007821832 1 0 0 0
28 1 -13.470434178145979 -2.02754601555693 -1.624830353937731 0 -0.8942723454787888 -0.2746824034622302 -0.35330800916491945 1 11.99524007821832 1 0 0 0
15 1 -12.774115640805922 -2.803496415858698 -0.7588989690370057 0 0.01198055482478777 -0.9765409838471134 -0.2149980771379179 1 11.99524007821832 1 0 0 0
16 1 -11.760011161326377 -3.417099823515192 -1.3211395318621053 0 -0.9923992496001235 0.12028032666022248 0.026007160775866053 1 11.99524007821832 1 0 0 0
20 1 -7.436208551799668 -2.7490561967558986 -0.9740883481370812 0 0.41524860508631706 -0.9083490641107452 -0.04970486598916338 1 11.99524007821832 1 0 0 0
29 1 -6.588039322134219 -1.8846418233301596 -0.20783037684398037 0 -0.9860695927160408 0.16613913254997503 -0.008034112045786322 1 11.99524007821832 1 0 0 0
27 1 -14.394360347996006 -1.0037903816440787 -1.1683450030952145 0 0.29520354150121103 0.918440074717107 -0.2632920398317764 1 11.99524007821832 1 0 0 0
39 1 -6.5685490311228145 -0.6632875394686742 -0.779698595187644 0 0.5927155410951951 0.17233036102761468 -0.786759514726274 1 11.99524007821832 1 0 0 0
91 1 -14.908608706177217 1.5073736092146834 -0.5605426947196027 0 -0.31659921195757484 -0.3102344752106671 0.8963924973908501 1 11.99524007821832 1 0 0 0
92 1 -14.36841160538011 1.2734605386662374 -1.765407158534857 0 0.918813431117156 -0.38765424957115774 0.07420284083605916 1 11.99524007821832 1 0 0 0
80 1 -8.293241157859125 1.3252998626919008 -1.5847739270102918 0 -0.2718829227059992 -0.4412904707991074 0.8551855919756517 1 11.99524007821832 1 0 0 0
81 1 -7.613260522166567 1.3478485711178754 -0.3796611122115087 0 -0.38524304641582646 0.7415755977938048 -0.5492298498306651 1 11.99524007821832 1 0 0 0
75 1 -6.7359650011748275 0.39750178556424276 0.02050192629360747 0 -0.752566597793874 -0.6465562769645183 -0.12493396897055078 1 11.99524007821832 1 0 0 0
66 1 -13.13051708356913 3.426289571015072 -1.7518793094668559 0 -0.004935084744265643 -0.7604952069551413 -0.6493247917158435 1 11.99524007821832 1 0 0 0
67 1 -13.46534789530023 3.564453961992812 -0.4576061192773581 0 -0.26257050600586607 -0.49541652290064486 -0.8280212546866526 1 11.99524007821832 1 0 0 0
87 1 -9.613550460963843 3.140451298840217 -0.8947135127101953 0 0.9458184025874352 0.11763170815559179 -0.30263894422785315 1 11.99524007821832 1 0 0 0
69 1 -10.788344577172152 3.930170197387897 -1.022023982754185 0 0.15877853639375372 0.09097500944555559 -0.983113891691618 1 11.99524007821832 1 0 0 0
2 1 -9.572096353846625 -3.8235033746638982 1.5278502857534706 0 -0.9550403407621842 -0.295894397429371 -0.018559447372176373 1 11.99524007821832 1 0 0 0
5 1 -10.819974756612549 -3.5825930187782076 0.9469571865857203 0 -0.7162259298121929 0.39016242174737237 -0.5786136034702997 1 11.99524007821832 1 0 0 0
19 1 -8.343435088516202 -3.7741765647910626 0.9382098768512347 0 0.2036387460351723 0.973004256041726 0.10860008673067523 1 11.99524007821832 1 0 0 0
14 1 -12.660434564101761 -2.297767015522494 0.616983799684484 0 0.9006844230935059 -0.0781447621219385 -0.4273885423705504 1 11.99524007821832 1 0 0 0
6 1 -11.72539771318703 -2.7421631156325565 1.504028483304933 0 0.6121757863058565 -0.79029889092025 -0.025854780428951785 1 11.99524007821832 1 0 0 0
31 1 -7.457926644772396 -3.01500847466822 1.6794269850838144 0 0.6606541110712227 -0.7169627005707685 -0.2224873738326797 1 11.99524007821832 1 0 0 0
30 1 -6.636208811277765 -2.029545492814065 1.1129703624962692 0 0.8928918763455863 -0.4154695607690432 0.17357747904159854 1 11.99524007821832 1 0 0 0
12 1 -14.340804204474502 -0.6093187394353176 0.15277645553464408 0 -0.7577251350416474 0.6382303595556219 -0.13606846757283061 1 11.99524007821832 1 0 0 0
13 1 -13.447961105000863 -1.2155017125955714 0.978655981428784 0 0.6778711820825022 -0.13489869665904883 0.7226984171435281 1 11.99524007821832 1 0 0 0
33 1 -6.1138547590099535 -1.008352578425383 1.8472665064735718 0 0.3864139997224323 -0.9058184892498844 0.1737155299665778 1 11.99524007821832 1 0 0 0
11 1 -14.908841705015185 0.5176940171551825 0.44626454016967676 0 0.23098283191246533 0.9064064291901521 0.353658474356907 1 11.99524007821832 1 0 0 0
8 1 -14.545193865823586 1.2261627951729983 1.6900999796421572 0 0.8115935917322641 -0.5299343481123973 -0.24593785505654006 1 11.99524007821832 1 0 0 0
76 1 -6.175137779507612 0.24266944986916128 1.2399674750085752 0 0.3326906181619241 0.6964722730552075 0.6358013254565837 1 11.99524007821832 1 0 0 0
68 1 -14.419130268710108 2.7665333951075155 0.09638289509341685 0 0.1860673623269985 -0.315571117392539 0.9304804170665268 1 11.99524007821832 1 0 0 0
62 1 -14.35451508943937 2.550409160563629 1.455768784424812 0 0.2467662887383622 -0.1348101632719252 -0.959652342580839 1 11.99524007821832 1 0 0 0
88 1 -8.972882442262152 3.1308319333447088 0.3257645449650683 0 -0.33596588637795266 0.19689943913433017 0.9210632627886444 1 11.99524007821832 1 0 0 0
82 1 -8.046954599258815 2.2254705656005362 0.6068625586256046 0 0.06936965724977806 -0.808523561499733 -0.5843607628450384 1 11.99524007821832 1 0 0 0
83 1 -7.394211814808601 2.1637626569952926 1.800858309003603 0 -0.694207904644427 -0.05513763072700274 0.7176595479801033 1 11.99524007821832 1 0 0 0
59 1 -12.8203894351502 4.24952251583841 1.7496669848449333 0 -0.729070836374434 -0.6739261085670721 0.11949609089809705 1 11.99524007821832 1 0 0 0
65 1 -12.69205135434519 4.336505297638022 0.3577723723133705 0 -0.7971733393527295 -0.1873526504624936 0.5739456867944016 1 11.99524007821832 1 0 0 0
70 1 -11.31914940265417 4.523889518442448 0.07917095831979387 0 -0.6639862171713277 0.1749800026658912 -0.7269830136073024 1 11.99524007821832 1 0 0 0
84 1 -10.624000528104343 4.45938661598641 1.184281106850533 0 -0.439776312419515 0.5193392085724056 0.7327234003865856 1 11.99524007821832 1 0 0 0
85 1 -9.399397793016766 3.994451990698631 1.2271066142906428 0 -0.6549933343644885 0.7448568114042559 -0.1271694241662467 1 11.99524007821832 1 0 0 0
4 1 -11.428064191266149 -2.078840233427067 2.740734523583518 0 0.8227324262164466 -0.08589385060734833 -0.5619017719137764 1 11.99524007821832 1 0 0 0
53 1 -10.296465865566725 -2.3472673989895365 3.33553845335263 0 -0.8516679925449189 -0.15488198515731164 0.5006727485576168 1 11.99524007821832 1 0 0 0
54 1 -9.398399003792457 -3.2766134566984517 2.816197489596949 0 0.5463194434375106 0.8367626878818588 -0.03692248489545846 1 11.99524007821832 1 0 0 0
32 1 -7.992755325650698 -2.7994955447266303 2.9095142617243974 0 -0.2990325887156207 -0.9465298176170749 -0.12108185350341166 1 11.99524007821832 1 0 0 0
10 1 -13.310984391695332 -0.7237960960741554 2.309560109415873 0 0.5973005304366247 -0.4973569833702326 -0.6291805046510806 1 11.99524007821832 1 0 0 0
3 1 -12.24360150283193 -1.0788471041516026 3.0948449579536543 0 0.10844998665851097 -0.7680997501935587 -0.6310795307616637 1 11.99524007821832 1 0 0 0
35 1 -7.571371436131535 -1.7925736299374735 3.658459780963388 0 0.11070028288274159 0.7017996109668319 -0.7037206501279358 1 11.99524007821832 1 0 0 0
34 1 -6.6282544690575325 -0.9503900299701753 3.191416611259953 0 0.2570821495090226 -0.6743540414758168 0.6922105136077121 1 11.99524007821832 1 0 0 0
9 1 -13.865712356654411 0.5054260251865054 2.5640786415259265 0 -0.6087153347080969 0.5538607429177054 0.5680703466524702 1 11.99524007821832 1 0 0 0
77 1 -6.54795757587263 1.1872070722238899 2.1812634404337796 0 -0.6295948230702636 -0.7017608078680215 -0.3333798543756736 1 11.99524007821832 1 0 0 0
36 1 -6.692765867599735 0.38261685302027487 3.3873931161637403 0 -0.018657479998478332 -0.4526065095352584 0.891515140626572 1 11.99524007821832 1 0 0 0
60 1 -13.58692744685809 3.2561817847467336 2.3150046242325972 0 0.2368823754208031 -0.9211167652667114 -0.3089185086063776 1 11.99524007821832 1 0 0 0
61 1 -13.308033122969325 2.6660163781832886 3.4755118662571247 0 0.011857653105097704 -0.8768308129032787 -0.480652807758589 1 11.99524007821832 1 0 0 0
49 1 -7.901781986210136 2.8949213146747397 2.881103075657193 0 -0.6225522041801665 -0.3192275923157364 -0.7145085705397202 1 11.99524007821832 1 0 0 0
50 1 -8.891189581749936 3.7997520673688183 2.596021476151148 0 0.24755086942132382 0.1869574606295335 -0.950665806139941 1 11.99524007821832 1 0 0 0
47 1 -11.602914006655352 4.491084261417396 2.3014824460760095 0 -0.8819870759809283 0.11067350836145334 -0.4580940649578203 1 11.99524007821832 1 0 0 0
48 1 -11.182610123459481 3.8488203150801743 3.4648071905299243 0 -0.31835729047031724 -0.6782173562255793 0.6623215633804949 1 11.99524007821832 1 0 0 0
43 1 -9.821310811596849 3.7464845702511935 3.640943927822529 0 -0.7029881070513924 -0.29909727884256887 -0.6452507567862833 1 11.99524007821832 1 0 0 0
56 1 -11.83728715475257 -0.3066621598861086 4.245305898424144 0 0.8838726199046265 0.004632330527930356 0.46770475013282853 1 11.99524007821832 1 0 0 0
52 1 -9.873492730259455 -1.5936158995771137 4.431883198589578 0 -0.15845837732946585 -0.8073892375929729 -0.5683428205521299 1 11.99524007821832 1 0 0 0
51 1 -10.665409128185392 -0.4773938888358826 4.8116462482343865 0 -0.8750329982704987 0.4754018657621927 0.09116094540738345 1 11.99524007821832 1 0 0 0
41 1 -8.54057135024251 -1.2215750025620926 4.480879032872617 0 0.5548233216144776 -0.49821215116528317 -0.6663000331862063 1 11.99524007821832 1 0 0 0
7 1 -13.480634995444339 1.2670628920914622 3.6047292823970545 0 0.21960378448010626 0.5306234273166425 -0.8186653505705218 1 11.99524007821832 1 0 0 0
55 1 -12.407746590160055 0.7978275967250851 4.454956077541581 0 -0.7481553900490261 -0.5192848268224156 -0.4130457371437245 1 11.99524007821832 1 0 0 0
46 1 -9.764887747645838 0.5163803014646133 5.189430637881862 0 0.5998734257783698 -0.5917302622871349 0.5385231376074022 1 11.99524007821832 1 0 0 0
45 1 -10.305110601425069 1.7661788218578136 4.94128873693721 0 -0.07343357770707548 -0.6960927531549739 -0.7141865223247128 1 11.99524007821832 1 0 0 0
42 1 -8.451495973810912 0.16025685496184186 4.870063659014492 0 0.8192069201913941 -0.36091128908106407 -0.4456939121464139 1 11.99524007821832 1 0 0 0
37 1 -7.644724739511976 0.9610793972650317 4.243620750929441 0 0.7628963277018789 -0.6149446165939808 0.1995803389642113 1 11.99524007821832 1 0 0 0
57 1 -11.609182034301499 1.937141948283082 4.729808865039846 0 0.7540517355562552 0.1886184299808515 -0.629149479834608 1 11.99524007821832 1 0 0 0
58 1 -12.048194451881553 3.0662462470641314 4.144503021622684 0 -0.8728088444244361 -0.07884436428457389 0.48165162442894555 1 11.99524007821832 1 0 0 0
44 1 -9.357992777098959 2.6370603741359306 4.549730660310721 0 -0.7811346932790983 0.183568033020408 -0.5967674322621728 1 11.99524007821832 1 0 0 0
38 1 -8.030838542686773 2.230653978903461 4.058834846034819 0 -0.4562059720877052 -0.47950725250851334 0.749632513851453 1 11.99524007821832 1 0 0 0

Velocities

89 49.38425235206603 96.624871319161 -6.975860392290095 0 0 0
96 39.89632431596815 -51.00168533377712 -65.80269638323509 0 0 0
71 -29.09431262410328 173.40803981142165 57.08612845895988 0 0 0
23 -98.35170177504928 -100.63426322840749 -127.33599131263303 0 0 0
22 9.627903270149417 -34.44958620666958 -7.491765845302593 0 0 0
24 -185.15153840120377 106.80290639108435 56.33237030566974 0 0 0
25 65.56914441451775 166.94915539688392 -38.830158897750174 0 0 0
26 120.78046038101442 -59.82469299207328 57.32038614996256 0 0 0
21 96.99719057476511 -23.485038396349303 -14.202391624796782 0 0 0
95 -114.819713729511 47.12727986286099 143.42362607530615 0 0 0
90 -73.87570153083152 20.461732678408552 -66.52814620066086 0 0 0
40 -45.43817142273247 -29.29144386746607 117.99757898790665 0 0 0
93 -39.01149111009241 -86.30886684872158 0.33061828698357965 0 0 0
94 -13.74258536655366 -129.3762003860071 91.67816071195529 0 0 0
78 -78.40325977958152 -5.167639349405087 28.077494059538612 0 0 0
79 -49.297197897167365 -42.21814048926245 3.8777638607934968 0 0 0
64 24.307113048665016 -244.50082798726407 12.41334992682534 0 0 0
63 4.834182783129543 86.76635472721476 -32.16600155555517 0 0 0
73 20.613107643420808 134.0032079873301 -43.69204218457378 0 0 0
74 71.93845497890902 -84.63084381156358 -175.6231556037134 0 0 0
72 -244.44414353056155 109.15288966668203 -72.0708168678169 0 0 0
86 -113.98561971342113 -52.409520633474585 39.96717035279519 0 0 0
1 -56.55512149246161 39.056424592487815 -96.82224661480505 0 0 0
17 -41.61152322577807 -68.90841944312075 -32.233225156131915 0 0 0
18 -21.60173116230348 32.239407393304745 85.9052743476759 0 0 0
28 93.21024445530036 -80.90545586932035 125.43481999006642 0 0 0
15 133.95970518831444 -82.8080046133961 -55.589661122620896 0 0 0
16 -55.47851589869912 60.521373746711404 -62.788090431814275 0 0 0
20 192.9500744766743 -21.26683731402981 74.9792691745125 0 0 0
29 50.90460015791753 -86.45733726186356 63.6065493830248 0 0 0
27 -25.369958022981322 -22.184572526664166 64.9030785465641 0 0 0
39 -121.52018893829194 74.85390029141305 76.55152192032939 0 0 0
91 -153.37615022473102 -29.1516258274697 -41.72955252138139 0 0 0
92 27.915308632141464 -11.217144742158949 -54.8922695817396 0 0 0
80 9.627664662456871 -16.058657193864995 -179.04946323808008 0 0 0
81 52.17976109509572 -185.2862824616596 69.95790016819166 0 0 0
75 135.53459799455692 -47.29653686879985 76.91988139878907 0 0 0
66 -154.51901303410222 84.86469277354618 -128.05717653444265 0 0 0
67 -177.71572562277575 -68.96051441832519 -44.86286614429889 0 0 0
87 -95.71519674465554 -227.37121775781299 -156.0813860634753 0 0 0
69 -42.19752935585953 -5.265383283836853 26.385012099919603 0 0 0
2 61.25093083389845 14.988390805367576 33.447959105450245 0 0 0
5 119.7017713507828 51.851609816491695 -20.100275897861195 0 0 0
19 89.02493456714205 99.78671784989719 75.99699229151025 0 0 0
14 40.09929222397001 95.64202763410304 -28.45323723550785 0 0 0
6 -198.66197024753941 -18.567882930418186 68.82441866329555 0 0 0
31 38.79045513059574 -65.04583084109888 104.5725193392792 0 0 0
30 44.72208890907435 80.52936576756548 30.642976997494202 0 0 0
12 -146.2870525074842 -22.324686890639185 -70.77512433779174 0 0 0
13 177.06985163278307 45.35428041688251 -13.337590619652616 0 0 0
33 -72.49256786143434 147.98071943498857 92.46125198523366 0 0 0
11 6.597471119402911 19.539103265789986 -145.12127174166062 0 0 0
8 -2.701943255081847 -49.5701520403297 -45.805299779677156 0 0 0
76 -134.2386126827226 12.700712661530936 75.5846729194334 0 0 0
68 -50.99248722010189 16.724788513287237 47.018456025184825 0 0 0
62 28.747496262545976 -55.014992853321274 45.514307360654264 0 0 0
88 -195.85073509311746 13.68170107529238 138.2815223970525 0 0 0
82 -26.46504688129115 -144.6600000980286 198.25880556975025 0 0 0
83 31.059748853139766 10.414608904137118 45.72449555293708 0 0 0
59 -93.93036542148948 191.98994403815044 -19.66486074914772 0 0 0
65 110.90578169899901 5.451605964532515 -59.161700312837525 0 0 0
70 -45.93650191812271 -19.05707096910581 111.59755347052581 0 0 0
84 6.883755816996413 -70.41936775441383 -1.9003428402563678 0 0 0
85 -89.28232316329161 -6.179836793520224 -87.56238307056464 0 0 0
4 176.94599461402169 -4.455505247861566 34.55767432098154 0 0 0
53 -17.31020270475865 -16.955151292048456 -93.44269224056917 0 0 0
54 124.08527934121656 -151.16909148116395 -6.8525681021505696 0 0 0
32 -26.907051681116574 103.94466358410395 8.55027031749351 0 0 0
10 46.64760260116376 10.266744538403398 24.076371210827183 0 0 0
3 77.59065350603332 21.148789359438062 -50.671085560838705 0 0 0
35 178.14190041030002 -44.10221714037382 -24.76780277045732 0 0 0
34 30.120829412096924 185.79731068218842 129.35365530087577 0 0 0
9 -165.78892125770687 -87.61514215323757 29.12347364742856 0 0 0
77 14.609828957735047 134.17491816708716 83.01246208252743 0 0 0
36 -43.97988454321752 -8.916413178492135 -76.0596387983059 0 0 0
60 -10.520842569298647 -16.01775137469736 146.81844522945417 0 0 0
61 -13.88342576054395 88.4993747684033 67.54872239417689 0 0 0
49 -89.80430112807915 35.53414089114005 122.37214514836558 0 0 0
50 -11.10204689398171 18.932692127520045 8.920530756587958 0 0 0
47 -66.34037881470243 -22.77953103499 37.88648207649625 0 0 0
48 7.756085448152007 54.92535815536117 11.198924154274513 0 0 0
43 -86.3448028876797 66.5015907022588 142.83662851356326 0 0 0
56 31.178160894431723 7.611454758903268 64.32949824820057 0 0 0
52 55.98661391850432 22.91545241854947 106.36615226902902 0 0 0
51 132.310634086901 70.46776014425882 154.1894035660411 0 0 0
41 -24.06816748076555 -56.925250124552605 42.967424364952414 0 0 0
7 -89.87273652241691 -90.89788278919049 -124.2949860783931 0 0 0
55 -117.0493140342056 47.9499326413391 22.61961147900285 0 0 0
46 -79.65387369861179 44.35563942192431 15.227955025257891 0 0 0
45 104.07127148517199 -7.722550172349628 -11.560033480543812 0 0 0
42 230.17075134440137 -4.174176124399793 147.62421510438685 0 0 0
37 -39.510258106108864 -66.38169586432407 64.70325887491853 0 0 0
57 -95.66449755164942 -116.24752144726168 -5.023686071560562 0 0 0
58 6.724895767280618 -61.83767865395578 85.52270853534907 0 0 0
44 -85.66388756109869 -66.90880721528046 -90.44169899755565 0 0 0
38 6.4463061564550195 61.57655284981223 0.9125036203296713 0 0 0

Bonds

1 1 89 96
2 1 89 90
3 1 71 78
4 1 71 96
5 1 71 72
6 1 23 24
7 1 22 23
8 1 22 89
9 1 24 25
10 1 25 26
11 1 25 90
12 1 26 40
13 1 21 22
14 1 21 95
15 1 21 28
16 1 40 79
17 1 93 95
18 1 94 96
19 1 94 95
20 1 78 90
21 1 78 79
22 1 79 80
23 1 64 66
24 1 64 92
25 1 63 94
26 1 63 73
27 1 63 64
28 1 73 74
29 1 72 86
30 1 72 73
31 1 86 87
32 1 1 5
33 1 1 16
34 1 1 17
35 1 17 18
36 1 17 24
37 1 18 19
38 1 18 20
39 1 15 28
40 1 15 16
41 1 16 23
42 1 20 29
43 1 20 26
44 1 29 39
45 1 29 30
46 1 27 28
47 1 27 93
48 1 39 40
49 1 39 75
50 1 91 92
51 1 92 93
52 1 80 81
53 1 80 86
54 1 81 82
55 1 75 81
56 1 75 76
57 1 66 67
58 1 66 74
59 1 67 68
60 1 87 88
61 1 69 87
62 1 69 70
63 1 69 74
64 1 2 5
65 1 2 19
66 1 2 54
67 1 5 6
68 1 19 31
69 1 14 15
70 1 6 14
71 1 31 32
72 1 30 33
73 1 30 31
74 1 12 13
75 1 12 27
76 1 13 14
77 1 33 34
78 1 33 76
79 1 11 12
80 1 11 91
81 1 8 9
82 1 8 11
83 1 8 62
84 1 76 77
85 1 68 91
86 1 62 68
87 1 82 83
88 1 82 88
89 1 59 65
90 1 59 60
91 1 65 67
92 1 65 70
93 1 70 84
94 1 84 85
95 1 85 88
96 1 4 53
97 1 4 6
98 1 53 54
99 1 32 35
100 1 32 54
101 1 10 13
102 1 3 4
103 1 3 10
104 1 3 56
105 1 35 41
106 1 34 36
107 1 34 35
108 1 9 10
109 1 77 83
110 1 36 77
111 1 36 37
112 1 60 61
113 1 60 62
114 1 49 83
115 1 49 50
116 1 50 85
117 1 47 59
118 1 47 84
119 1 47 48
120 1 48 58
121 1 43 44
122 1 43 50
123 1 43 48
124 1 52 53
125 1 51 52
126 1 51 56
127 1 41 52
128 1 41 42
129 1 7 9
130 1 7 61
131 1 7 55
132 1 55 56
133 1 55 57
134 1 46 51
135 1 45 57
136 1 45 46
137 1 42 46
138 1 37 38
139 1 37 42
140 1 57 58
141 1 58 61
142 1 44 45
143 1 38 49
144 1 38 44

Ellipsoids

89 1 1 1 0.27229227659754135 0.5104871767395862 0.6826251720680543 -0.44641083426461997
96 1 1 1 0.716652467719296 -0.411944737828629 -0.2795218417035055 0.4884447906343417
71 1 1 1 -0.626833357434543 0.5567539470591966 0.04349550854344784 -0.5433351867658586
23 1 1 1 0.18800811309918222 0.861789902771083 0.33297908048747116 -0.33331073317313165
22 1 1 1 0.8653545352388474 0.41349699541531176 0.23719365061707223 0.15466394289237018
24 1 1 1 0.6309211888453535 -0.2098764294554548 0.11146024277545051 -0.738557345170592
25 1 1 1 0.1024271727457663 0.16017801570563983 -0.30003974956398577 0.9347875834912942
26 1 1 1 -0.04147195786831598 -0.0691660917729034 0.5431339169211994 0.8357641274601744
21 1 1 1 0.5691976754464381 0.0491164977898701 0.0003603199861683566 0.8207322621176388
95 1 1 1 0.08793955011368389 0.1848118861018886 -0.11662613660849853 0.9718588099827266
90 1 1 1 0.7723637604703629 0.4396454055776029 -0.027353267467587216 -0.4576220466994913
40 1 1 1 0.038237265026245616 0.1123297135788778 -0.9255291152737208 -0.3596050664148707
93 1 1 1 -0.11801499655944447 -0.5574960600875781 0.8001756126824748 0.18705505190218202
94 1 1 1 0.318249571570454 0.8987759251450484 0.15673051847312558 -0.2575938492162223
78 1 1 1 -0.8797129736057285 -0.2327510916289785 -0.3317707570585324 -0.24871706450522046
79 1 1 1 0.347729309784966 0.4032264364048781 -0.8386060014095462 0.11503365812050852
64 1 1 1 -0.03832578410170619 -0.6059402912436116 0.5505722589437664 -0.5729203133090629
63 1 1 1 0.012307513104593932 -0.1161140784360472 0.9817042504487664 0.1504088114471802
73 1 1 1 -0.444924776420811 -0.5987908995535983 -0.5272685961634753 0.40679138319104285
74 1 1 1 0.26215280335173585 -0.5142378042028058 0.34642691164966427 0.7394753432727683
72 1 1 1 0.7395158893847104 -0.5046519945719801 0.06430981335090198 0.4408025199892073
86 1 1 1 0.0422323507119493 -0.8224900926593934 -0.39030690658390677 -0.41156651309768494
1 1 1 1 0.3489438654511048 -0.5221133859944833 0.08971024581890504 0.7730380732696989
17 1 1 1 0.8062815589247214 -0.4263456132072855 -0.07525899155216612 0.40308255981544977
18 1 1 1 0.7482229011193111 -0.300489728097641 0.4917869507019875 0.32865484732108907
28 1 1 1 -0.19972513337719242 0.1139021437817059 -0.9633374004974224 0.13826505539095252
15 1 1 1 -0.7113120908399696 0.005038535230074213 -0.1559823132704368 0.6853314822291542
16 1 1 1 -0.05982536814791382 -0.014876173093399326 -0.03071051921843253 -0.9976254251017243
20 1 1 1 -0.1113914360066374 -0.8337962883867603 0.5312433300509921 0.10077808161090394
29 1 1 1 -0.008708248482860448 0.08300222918898391 0.9848926189642798 -0.15172780057623744
27 1 1 1 0.7565899436354108 -0.2741777305697373 -0.0406204153157893 0.5922399945199305
39 1 1 1 0.8861331923249661 0.10547860450139744 0.44913913873092126 0.04377514720076616
91 1 1 1 0.5000242513364295 -0.30278068316300494 -0.518414651058986 -0.6241360873609035
92 1 1 1 -0.6106320665273317 -0.7658558577742539 0.1783382929875801 0.0937482676943845
80 1 1 1 -0.06952532958982723 0.5993536244926081 -0.28159205350175776 0.7460880489309977
81 1 1 1 -0.0481493826996679 0.5523224725988685 0.6232443363658832 -0.5515324291424424
75 1 1 1 -0.34415115845937855 -0.07264076840267257 0.01604542711991372 0.9359625223081727
66 1 1 1 0.3784110048687377 -0.5952626050929953 0.7018697918745713 0.09922871371774748
67 1 1 1 0.5177911380978218 0.31718619816194615 0.3683101728910269 -0.7040119811110568
87 1 1 1 -0.08923550754213537 -0.9823167643318601 -0.07326363988481872 0.14738805167689098
69 1 1 1 -0.3830288149857833 -0.6577827871626495 -0.37660582285557465 0.5279950624716093
2 1 1 1 -0.009001094047909122 0.1496623196561132 -0.9886929300036479 -0.00254175960586872
5 1 1 1 -0.048753610319634044 0.3735105360959779 0.4141332331187226 -0.8286173001649979
19 1 1 1 0.5352543748486603 0.5615355084257415 0.40564311317957163 0.4833573126708638
14 1 1 1 -0.38341751332852503 0.8962885818862825 -0.12306541123972013 -0.18577592150126862
6 1 1 1 -0.4946675535509172 -0.749260905570869 0.3593594114371978 0.25450524603352004
31 1 1 1 -0.3633094060820221 0.8356634077114659 -0.4094598897360154 0.04489480105489537
30 1 1 1 0.9662840387702963 0.11287645720236618 -0.11338306337774753 -0.20173830267523454
12 1 1 1 -0.2773072929112647 0.21032854722410427 0.3983297480860644 -0.8486436114827685
13 1 1 1 -0.019022738470935538 0.915736712413736 -0.06543052123257495 0.39595865421781407
33 1 1 1 0.37120068676687257 -0.745263074360335 0.4404093930149158 -0.33590559191983876
11 1 1 1 0.7633872989084971 -0.18091779299289903 -0.35253411091433884 0.5101257537956733
8 1 1 1 -0.5969069232863988 -0.7412819442013258 0.13580791884514737 0.2752442793462161
76 1 1 1 -0.11638069952427618 0.8079609160468111 0.4777683357838625 0.32464150726818064
68 1 1 1 0.5467476071192524 -0.5423105524262559 -0.28463846592758074 -0.5709179122701391
62 1 1 1 -0.7886082212273948 -0.03847359850267892 -0.6028420094227457 0.11488414732227022
88 1 1 1 0.5476567010027935 0.17913457136399052 -0.7065223934407555 0.41086378613321806
82 1 1 1 0.20568800702174864 0.7016959971328823 -0.4181358082953711 -0.5389597547092801
83 1 1 1 -0.06897666247362387 0.3848873441824064 0.0924810830184704 0.9157244135688117
59 1 1 1 -0.36177759877006904 0.06768715417969629 -0.00880352471790388 0.9297622901256849
65 1 1 1 -0.054437490707542446 0.3137672543926496 -0.13578571800870723 0.9381625170839137
70 1 1 1 0.21844412541681843 -0.34682712622460415 0.29200396573903015 0.8641335501983146
84 1 1 1 0.39967588013580296 0.3469452905400414 -0.20111533988364563 0.8242819761909411
85 1 1 1 0.051487877500702446 -0.4121314490405077 -0.8707983445045008 0.26307206311287623
4 1 1 1 0.787673369838497 -0.539385646412184 0.26823738103409583 0.12916073051723553
53 1 1 1 0.1696224944421555 0.21305917747602787 -0.7950029861810829 0.5420371280969786
54 1 1 1 0.879063134839999 0.020192243164862747 0.03191663352144439 0.4752069094467193
32 1 1 1 -0.12694003492507924 -0.5782472941358302 0.7588914442808882 0.27129332862250416
10 1 1 1 0.8634449876418739 0.23046261851857072 0.2683531071136562 -0.3596336256304938
3 1 1 1 0.2874303403880487 0.6867377903928588 -0.3122303442429464 -0.5901586386766492
35 1 1 1 0.26003732289190157 -0.6983772133629388 -0.27651674124550263 0.606785258859835
34 1 1 1 0.42197385557397554 0.6711774280818336 -0.5924083408240871 0.14321760704445838
9 1 1 1 -0.1604333639575425 0.41219348414939605 0.8163755300670988 0.37133362527747477
77 1 1 1 0.38187097683563326 0.19843675444702144 -0.032253994295432444 -0.9020848581963462
36 1 1 1 0.10645878958822567 0.6923422463783145 -0.4160303074477374 0.5798685396572056
60 1 1 1 -0.5117827627572366 -0.5970926154751638 0.3168392229668396 0.5302562767939366
61 1 1 1 0.6568540406253178 -0.27289484397243985 0.5484974542500745 -0.43956992177427107
49 1 1 1 -0.00010985330472573888 0.4344236248665215 -0.36762302092016014 -0.8222708900232446
50 1 1 1 0.5403160094847965 0.5760503837383387 0.49806135116060185 -0.3579936532529787
47 1 1 1 -0.044640185099877466 -0.2387754507561122 -0.3972066711190321 0.8849974002272556
48 1 1 1 -0.5726228132307775 -0.11368583259364959 0.6695063782361805 0.4592818902768003