LAMMPS data file via write_data, version 15 Sep 2022, timestep = 50000000

36 atoms
1 atom types
54 bonds
1 bond types
36 ellipsoids

-20 20 xlo xhi
-20 20 ylo yhi
-20 20 zlo zhi

Masses

1 1

Pair Coeffs # lj/cut

1 1 2.5

Bond Coeffs # fene

1 30 1.8 0 1

Atoms # hybrid

36 1 -10.919598333657142 -4.234236798870394 -12.893781757407568 0 -0.6272970051400242 -0.7728844537751889 -0.0956456400207755 1 11.99524007821832 1 0 0 0
30 1 -13.676280072561271 -2.509522913832348 -13.734265355079888 0 -0.4183979143712457 0.0521823962341641 -0.9067635760070275 1 11.99524007821832 1 0 0 0
31 1 -12.731265110670773 -3.245880892839047 -14.001938123281011 0 -0.39328762924310917 0.36560263032584595 0.8435991686714477 1 11.99524007821832 1 0 0 0
34 1 -11.569347331105211 -2.740357204031402 -14.60968504864682 0 -0.7979797219194777 -0.5579939544906088 0.2277523000042914 1 11.99524007821832 1 0 0 0
35 1 -10.374814130691338 -3.4284906756444973 -13.96865283905208 0 0.29364724719924196 0.6718703916820087 -0.6799716692578981 1 11.99524007821832 1 0 0 0
18 1 -9.698714823934438 -2.331531188084123 -13.284305681525721 0 -0.08680216201607183 -0.9363409647314562 -0.3401925666958365 1 11.99524007821832 1 0 0 0
21 1 -14.551151587206196 -0.4354054580223641 -13.434323840600358 0 -0.4577384400007995 0.7381506003479261 -0.4955897615484307 1 11.99524007821832 1 0 0 0
33 1 -13.768483174073554 -1.2342937833207241 -14.328546690867714 0 -0.6403395901696325 0.17532380913851509 -0.7478146636771364 1 11.99524007821832 1 0 0 0
16 1 -12.43750940943219 -0.5815066046091334 -14.401222215271249 0 0.038454234561487805 -0.7627611070366839 -0.6455360295417001 1 11.99524007821832 1 0 0 0
17 1 -11.365227731123277 -1.3647201442014394 -14.496610904347861 0 -0.9085558491791771 -0.34571844248498024 0.23453150630152775 1 11.99524007821832 1 0 0 0
14 1 -10.213139082284648 -1.1542466328334564 -13.743667307962735 0 0.9169460823095237 -0.006560181300817203 -0.3989571984041852 1 11.99524007821832 1 0 0 0
15 1 -10.186572802199525 -0.0480578664338656 -12.94726441885147 0 0.6063677116206226 -0.29736104228253624 0.7374921076436094 1 11.99524007821832 1 0 0 0
13 1 -13.625956688483202 0.5432300681358447 -12.88341026190582 0 -0.12437122965181627 -0.31389770764005787 -0.9412757440692988 1 11.99524007821832 1 0 0 0
12 1 -12.361216900195693 0.4731572664744606 -13.535083411920624 0 -0.2222953754863973 0.2123291974860263 0.9515782037921539 1 11.99524007821832 1 0 0 0
11 1 -11.335852192891185 0.7979823462167277 -12.753300128762556 0 -0.8272697098165469 -0.030105193467235614 0.5609977758836 1 11.99524007821832 1 0 0 0
32 1 -12.32507554557286 -4.057214829992219 -12.872735333476932 0 0.4610026818285337 -0.16643031406301168 0.8716521541921334 1 11.99524007821832 1 0 0 0
28 1 -12.678757707294226 -3.704768580538938 -11.549911179019874 0 0.16151442737001032 -0.4575717953086693 -0.874380433157867 1 11.99524007821832 1 0 0 0
7 1 -10.431937579330944 -3.7236458173619993 -11.664497283538008 0 -0.7630550956222288 -0.2950952434171864 0.5750354061773085 1 11.99524007821832 1 0 0 0
29 1 -14.433790399277717 -2.552474415225806 -12.544315151048998 0 -0.4137822105765607 0.1052308348481365 0.9042736055019731 1 11.99524007821832 1 0 0 0
25 1 -13.795571499851686 -2.9385003970940917 -11.428054338132938 0 0.03639796686937169 0.03250085305815886 -0.9988087317190755 1 11.99524007821832 1 0 0 0
4 1 -9.633660714482959 -2.5439282585805434 -11.903690177952996 0 -0.23977510648001085 0.1287581308121933 -0.9622521717628125 1 11.99524007821832 1 0 0 0
20 1 -14.98461891532826 -1.2531185316004905 -12.33920666545836 0 0.7521378150227892 0.5453731852181942 0.3699416116871767 1 11.99524007821832 1 0 0 0
19 1 -14.33303722180752 -0.7209377247124886 -11.103182823920388 0 0.0015449321323659226 -0.5613022226459778 -0.8276094658940241 1 11.99524007821832 1 0 0 0
6 1 -9.625023467455565 -0.21922843833687392 -11.672021225660506 0 0.4883668590211544 0.4222905211024027 -0.7636547170003425 1 11.99524007821832 1 0 0 0
5 1 -9.638954759257592 -1.5008507549778287 -11.126277631445774 0 -0.8349944046914688 0.49840103922910517 0.2331968014988362 1 11.99524007821832 1 0 0 0
10 1 -13.646086758797761 0.379420916358852 -11.52296980662391 0 0.2791547110154422 0.2001409581153245 0.9391571988770382 1 11.99524007821832 1 0 0 0
8 1 -11.47902516974468 1.1549241780183725 -11.417935955710414 0 -0.33365773938053833 0.9243496296800637 0.18506829837062225 1 11.99524007821832 1 0 0 0
27 1 -11.48922582174848 -3.4260010843122357 -10.741692888894063 0 -0.6832508648433608 -0.04893754552952727 -0.7285419496009444 1 11.99524007821832 1 0 0 0
26 1 -11.490633221405073 -2.3597337232197253 -9.968575683311157 0 0.7438857366523027 -0.10475859453965047 -0.6600451860860274 1 11.99524007821832 1 0 0 0
22 1 -13.612107871818907 -1.784199720381107 -10.604066641588625 0 -0.5053722668596683 0.841526822109698 0.19087032131547543 1 11.99524007821832 1 0 0 0
23 1 -12.651231069139632 -1.5766489128619927 -9.864173315156833 0 0.8956995788361057 -0.4432612621434101 -0.035238018614186184 1 11.99524007821832 1 0 0 0
24 1 -12.169735144531726 -0.1973537545810341 -9.753916002540512 0 -0.8211166064038272 0.010567072196597638 -0.5706626461168223 1 11.99524007821832 1 0 0 0
1 1 -10.82014353885865 -0.1609625296713967 -9.597732603234512 0 -0.10327031408531628 -0.36780759423415454 0.9241497799882896 1 11.99524007821832 1 0 0 0
2 1 -10.391256950912027 -1.5388519442148623 -9.936201877167893 0 0.47441363622132127 0.8722897474124811 0.11850020390840627 1 11.99524007821832 1 0 0 0
9 1 -12.642250117703165 0.7223625811277905 -10.680593319559206 0 -0.36015486071151437 0.3796575875991549 -0.8521435281009059 1 11.99524007821832 1 0 0 0
3 1 -10.332269562590199 0.6427224907364593 -10.702168643846196 0 -0.6785022887170962 -0.177535578034328 0.712822392141043 1 11.99524007821832 1 0 0 0

Velocities

36 -3.2672791971494064 -65.83625633137129 -8.037392709037928 0 0 0
30 5.886011372445331 -73.3755977570724 49.60052539721266 0 0 0
31 -133.4251761896059 79.87379731915719 4.285255894054721 0 0 0
34 -140.40828357439727 -81.02965088176485 -7.152115921652086 0 0 0
35 39.04226021688293 89.13180566014344 60.40110076778377 0 0 0
18 -101.5784361922567 -16.072470251070964 49.48752765309358 0 0 0
21 -28.283654082573285 58.117026269066535 -203.06271254576797 0 0 0
33 -30.70765457462996 -31.918471030776058 -88.0216921229293 0 0 0
16 74.84902965310296 -82.04812288125737 17.242177443712663 0 0 0
17 -0.8271774534494638 -53.864739822016205 53.686620017842635 0 0 0
14 -11.559104133792857 -217.20434363706136 -74.85873280648704 0 0 0
15 -63.466663906798864 157.96681816098197 66.03341847117684 0 0 0
13 165.44289289338744 -129.66667514902068 46.269186449034954 0 0 0
12 -43.95549232783351 -76.77480093636692 -91.43819539411429 0 0 0
11 -114.86054042505992 -1.8472225291531892 166.013291266385 0 0 0
32 97.96196768851543 1.2055285531788762 -51.959970234398575 0 0 0
28 -22.321342330906102 67.87266253037374 28.42400990952977 0 0 0
7 -88.75529052825642 50.80823528901246 16.541408222604574 0 0 0
29 -144.4996630756867 -68.97517795374313 36.9665356004796 0 0 0
25 23.707684744017296 -77.06768619648433 66.38417908158311 0 0 0
4 151.8040334232153 -33.63282335864641 77.42728259303863 0 0 0
20 -17.705369611253218 24.83622866424784 -271.7712527058278 0 0 0
19 105.77934557776808 -115.33658744982196 -136.52264470496868 0 0 0
6 -7.627023583734509 85.82502807382787 72.69166131927972 0 0 0
5 -69.70265239650486 7.485431012547869 88.5165823895581 0 0 0
10 9.456831260512033 -115.69125349753602 98.97853983244646 0 0 0
8 -46.401478413832194 -108.18907210479998 -61.31316177710303 0 0 0
27 25.205157679620914 -5.699382290998443 -53.505473013556625 0 0 0
26 49.06678609567835 -74.29199749828123 54.626703268919165 0 0 0
22 -6.671409535365314 -165.32296853960537 -21.065512019517016 0 0 0
23 -21.465344176115632 44.46182336317489 -256.2744731677836 0 0 0
24 -3.5337311909811575 -39.906571978480144 -87.52081391163462 0 0 0
1 109.59501453039289 -96.38804965917406 18.598563336588263 0 0 0
2 101.35499169135845 -37.96153753890347 -31.076854742156996 0 0 0
9 46.28327720368579 -109.3685260774719 -40.53220201584202 0 0 0
3 -72.71916591749729 -175.56605843403392 42.23158923284688 0 0 0

Bonds

1 1 30 31
2 1 30 33
3 1 31 32
4 1 31 34
5 1 34 35
6 1 35 36
7 1 18 35
8 1 21 33
9 1 16 17
10 1 16 33
11 1 17 34
12 1 14 15
13 1 14 18
14 1 14 17
15 1 13 21
16 1 12 13
17 1 12 16
18 1 11 15
19 1 11 12
20 1 32 36
21 1 28 32
22 1 7 36
23 1 7 27
24 1 29 30
25 1 25 28
26 1 25 29
27 1 4 7
28 1 4 5
29 1 4 18
30 1 20 29
31 1 20 21
32 1 19 20
33 1 19 22
34 1 6 15
35 1 5 6
36 1 10 19
37 1 10 13
38 1 8 11
39 1 8 9
40 1 27 28
41 1 26 27
42 1 22 23
43 1 22 25
44 1 23 24
45 1 23 26
46 1 1 2
47 1 1 3
48 1 1 24
49 1 2 5
50 1 2 26
51 1 9 24
52 1 9 10
53 1 3 6
54 1 3 8

Ellipsoids

36 1 1 1 0.18296073685096562 -0.39099471377620887 0.8577691539098136 -0.2790709249829773
30 1 1 1 0.45544685222058545 -0.28873726399053057 0.6841715735138469 0.4910277132517161
31 1 1 1 0.5376208184546266 -0.1196663734832089 -0.819641794670221 0.15757900574421033
34 1 1 1 0.22840293073781098 -0.22100280602435732 0.3529296046972878 -0.8800173606741829
35 1 1 1 -0.8010405007471536 -0.0718174057062112 -0.4583450675764633 -0.37828055121656273
18 1 1 1 -0.30479387862000007 -0.6030751284439947 0.5048143091420604 0.5371811559366729
21 1 1 1 0.49397808760338213 0.16467066820568102 0.67561904119069 0.5219273236581625
33 1 1 1 -0.07395231697701547 0.4175658747178878 0.049787555660991 -0.9042626799697752
16 1 1 1 0.6065954869530624 -0.3889331979773918 0.6627565625256214 -0.2037808174202815
17 1 1 1 0.06724519152834162 0.2029782245136853 -0.9398570704244998 0.2663580518074595
14 1 1 1 0.25982284775307585 0.9439094919218918 0.05084440241791677 -0.19733678214667186
15 1 1 1 -0.8836012625428931 -0.1497753806301847 0.43339162987744784 0.09480421584432806
13 1 1 1 0.2303333327952574 -0.6202910131361901 0.46996526409286676 0.5842244991200131
12 1 1 1 0.5361968400542553 -0.31834770451918265 -0.7429912595946341 -0.24312892857325255
11 1 1 1 -0.09196385822623206 -0.27911967661179293 0.34733034795334655 -0.8905035004416774
32 1 1 1 0.8523523748944138 0.06322001206990843 -0.5157256174426301 -0.059377997601392576
28 1 1 1 -0.636800933202299 -0.41861890205494334 -0.31446709970911074 0.5659975525702696
7 1 1 1 -0.32056836906448444 0.12533304809275944 0.6218870853728575 0.7034088433177156
29 1 1 1 0.4805465605625217 -0.24936699429405254 -0.7860332392467545 -0.29840048942241115
25 1 1 1 0.5880832255569421 -0.4151591300371805 0.5537348133904959 0.4185436333343357
4 1 1 1 -0.6164921753925059 -0.0070600594763976475 -0.7815187055463103 -0.09547809236272413
20 1 1 1 -0.2411615646651559 -0.9043837721010083 -0.2305817254083341 -0.26601345905108076
19 1 1 1 -0.1815933170164963 0.6839563825867329 -0.5333705645211956 -0.46340411611913657
6 1 1 1 0.82017583921504 0.2673855311689138 0.49668233285241137 0.09551560459793602
5 1 1 1 -0.14395022048347209 -0.2485581052330126 -0.5473322695287014 -0.7860817954120903
10 1 1 1 0.5762068547376675 0.5545836420784926 -0.33627981860538814 0.4973314067008096
8 1 1 1 0.5771830778956458 -0.005552017708871837 -0.16800719720757967 0.7991260547477617
27 1 1 1 -0.39594968237852257 -0.03998020263413781 -0.9045310271030437 0.15313083761800986
26 1 1 1 -0.25083847973367907 0.8994570169891656 -0.14897225117551444 -0.32536809931760086
22 1 1 1 -0.42353172825190455 0.2606429391603017 0.606875921513434 -0.6199901203382635
23 1 1 1 0.455526076346133 0.8604334856261405 -0.19272304565044734 -0.12250729879138915
24 1 1 1 0.2199525392286206 -0.20263903198783875 0.6897084983415394 0.6594395275666847
1 1 1 1 0.6179291999249062 -0.25793089546912984 -0.5310298069724944 -0.5192711248947063
2 1 1 1 0.27897440140297314 0.812022229666475 0.45798555138718844 0.23030939322987323
9 1 1 1 -0.5635625705018038 -0.04816428940244157 -0.7791293618489358 -0.27024963988991213
3 1 1 1 -0.3427496510435227 0.20801810582493838 0.6450715019884606 0.6504874339146756
