LAMMPS data file via write_data, version 22 Jul 2025, timestep = 201100, units = lj

4500 atoms
61 atom types
0 bonds
1 bond types

-32.545466 32.545466 xlo xhi
-32.545466 32.545466 ylo yhi
-32.545466 32.545466 zlo zhi

Masses

1 1
2 1
3 1
4 1
5 1
6 1
7 1
8 1
9 1
10 1
11 1
12 1
13 1
14 1
15 1
16 1
17 1
18 1
19 1
20 1
21 1
22 1
23 1
24 1
25 1
26 1
27 1
28 1
29 1
30 1
31 1
32 1
33 1
34 1
35 1
36 1
37 1
38 1
39 1
40 1
41 1
42 1
43 1
44 1
45 1
46 1
47 1
48 1
49 1
50 1
51 1
52 1
53 1
54 1
55 1
56 1
57 1
58 1
59 1
60 1
61 1

Atoms # hybrid

3815 1 0.15315249605680262 -6.333449570469882 -13.743903063189746 4 0.0298415518297304 1 0.1147560919106058 -0.4694014551799349 -0.8754959348148705 1 0 0 0
3338 1 0.6119340771171704 -5.845242527744198 -14.112795005758647 4 0.0298415518297304 1 -0.2554109511834938 -0.30924213436394904 -0.9160430497370591 1 0 0 0
3289 1 2.339635292384006 -6.1162438966935415 -14.521044689690001 4 0.0298415518297304 1 -0.09755960996885188 -0.19005286716980307 -0.9769142373787286 1 0 0 0
1397 1 1.34700550533568 -6.322850085262518 -14.115389724002457 4 0.0298415518297304 1 -0.27516744601774656 -0.3411477830190288 -0.8988326428703355 1 0 0 0
2390 1 1.6280687648549343 -5.64657225443196 -14.474810896290784 4 0.0298415518297304 1 -0.26714255441949963 -0.45723814961381976 -0.8482740119524791 1 0 0 0
2804 1 3.193693558431769 -6.26016742301967 -14.660588003670197 4 0.0298415518297304 1 -0.18100084254231663 -0.2751852808719224 -0.9441986757523083 1 0 0 0
3241 1 4.093355957857282 -6.290781609676654 -14.485761461714446 4 0.0298415518297304 1 0.17807313205024936 -0.3195334916663113 -0.9306924706294503 1 0 0 0
2541 1 2.9022308840703634 -6.7751909732204 -14.253562644935075 4 0.0298415518297304 1 -0.040321692832944324 -0.434400227638868 -0.8998165827408301 1 0 0 0
2471 1 4.610036116727585 -5.667415448949474 -14.443805434173571 4 0.0298415518297304 1 0.4206294746934697 -0.2462076629978254 -0.8731853252490248 1 0 0 0
2451 1 -0.6247891047529301 -4.710379509054873 -14.068391327896672 4 0.0298415518297304 1 -0.2621586746018406 -0.1829345665055053 -0.9475275768981339 1 0 0 0
2314 1 0.16891190959469374 -5.153219992848309 -14.083664278095306 4 0.0298415518297304 1 -0.1284106399723169 -0.20370525627643282 -0.9705748154816571 1 0 0 0
3293 1 0.2373675468851856 -4.293750206587669 -14.217131910398013 4 0.0298415518297304 1 -0.3522962121730546 -0.1503195813585181 -0.9237378710341576 1 0 0 0
3319 1 0.9212504514287742 -5.222639844244973 -14.355405653833996 4 0.0298415518297304 1 -0.3989684218488852 -0.13497719619808546 -0.906975928789686 1 0 0 0
3218 1 0.95108756609801 -4.456265307124296 -14.537406971596887 4 0.0298415518297304 1 -0.4773064636423215 -0.15780685549353546 -0.864451411992313 1 0 0 0
2551 1 1.7084897670568469 -4.8254344862296294 -14.608225460428761 4 0.0298415518297304 1 -0.4168645183859009 -0.14651235110288247 -0.8970831993567803 1 0 0 0
4431 1 2.446587232995482 -5.222106344138362 -14.722483284405975 4 0.0298415518297304 1 -0.1274989593127186 -0.137525499007804 -0.9822581420918985 1 0 0 0
3133 1 1.7631061837129745 -4.158771992452445 -14.801816233339077 4 0.0298415518297304 1 -0.2511018435271419 -0.10275111123318602 -0.9624918531076597 1 0 0 0
3180 1 2.5614952892586738 -4.488592980504948 -14.876399740496076 4 0.0298415518297304 1 -0.12660595445095052 -0.18499254867396978 -0.9745505452415861 1 0 0 0
2532 1 3.950038816805592 -5.163555452642946 -14.669273719520039 4 0.0298415518297304 1 0.04571503154161626 -0.33714148066985 -0.9403434056816106 1 0 0 0
1799 1 3.2078352535225103 -5.36713443430745 -14.731356821944358 4 0.0298415518297304 1 0.20994536113580292 -0.07305360269471001 -0.9749796573718248 1 0 0 0
4292 1 3.307054017050298 -4.5663095512319165 -14.816853673759406 4 0.0298415518297304 1 0.1222854712358192 -0.1555400795638793 -0.9802318035040974 1 0 0 0
2537 1 4.314203302682784 -4.477551935933093 -14.748451441562263 4 0.0298415518297304 1 0.08648457276296906 -0.17861377222096303 -0.9801111499993276 1 0 0 0
3592 1 4.789409986212708 -4.979306741860175 -14.419174264525783 4 0.0298415518297304 1 0.3306166576113334 -0.27683952991055216 -0.9022490464477171 1 0 0 0
3068 1 5.700863779005585 -4.811800408832671 -14.256997427526466 4 0.0298415518297304 1 0.29095619515848326 -0.4231227488582517 -0.8580863075422747 1 0 0 0
3781 1 -1.5566595009217372 -2.685905559553488 -14.286940161522223 4 0.0298415518297304 1 -0.06359611059148745 -0.26270974385984885 -0.9627769071538473 1 0 0 0
3238 1 -0.4441700914417197 -3.91037030549095 -14.183863368632197 4 0.0298415518297304 1 -0.14956612186773482 -0.18953483366449145 -0.9704155799590294 1 0 0 0
2425 1 -0.631856896148455 -3.166080695386384 -14.293485463028501 4 0.0298415518297304 1 -0.224772248278692 -0.16978025166921284 -0.9595063476912911 1 0 0 0
3332 1 0.5392855133404346 -3.65207195852619 -14.400957929084798 4 0.0298415518297304 1 -0.3816934128526117 -0.2577194932163219 -0.8876326090197723 1 0 0 0
3280 1 1.2794198309782225 -3.678789773053299 -14.658679011550472 4 0.0298415518297304 1 -0.2393797941930058 -0.24196375304166806 -0.940293017548841 1 0 0 0
2427 1 0.8370923191596932 -2.9900211781917867 -14.66297283387968 4 0.0298415518297304 1 -0.47127858131036376 -0.22354843159929683 -0.8531835495563573 1 0 0 0
2539 1 0.06435604717930181 -3.090332117959399 -14.503619348023996 4 0.0298415518297304 1 -0.06957813392029862 -0.3173878106879968 -0.9457397223638486 1 0 0 0
3204 1 1.745823714303909 -3.1499691831469527 -14.939848859087368 4 0.0298415518297304 1 -0.3072706814305724 -0.20682531095672388 -0.9288745262514448 1 0 0 0
3145 1 2.409911951427814 -3.6651888012151654 -14.791929345315511 4 0.0298415518297304 1 0.14313651809507577 0.06995283928471205 -0.9872278517265529 1 0 0 0
2574 1 2.575804277376531 -2.7943600302603318 -15.054482851183272 4 0.0298415518297304 1 -0.20560354092603292 -0.07287056564399537 -0.97591843107475 1 0 0 0
2594 1 4.11100758936249 -3.7614895489969786 -14.776321447640262 4 0.0298415518297304 1 0.18935522512388983 -0.11461575998846375 -0.9751959967547793 1 0 0 0
2707 1 3.281299042825052 -3.717799645780439 -14.869825043852657 4 0.0298415518297304 1 -0.0669632575728887 -0.14103801418241016 -0.987737015991458 1 0 0 0
3001 1 3.5868482646323705 -2.980898742550527 -15.003795294638572 4 0.0298415518297304 1 0.05055055699898436 0.05296532492511548 -0.9973162090087924 1 0 0 0
3520 1 5.263318221669656 -4.177883098393295 -14.586142570991921 4 0.0298415518297304 1 0.36516810372666897 -0.12310504340656045 -0.9227663990016854 1 0 0 0
3331 1 4.770664847622171 -3.5520595394719066 -14.808075430573375 4 0.0298415518297304 1 0.13180198264172677 -0.16171029090277309 -0.977997238818623 1 0 0 0
2592 1 6.420468270699554 -2.977105501396486 -14.542712404075441 4 0.0298415518297304 1 0.5235293675540783 -0.22087977340830214 -0.8228787348817099 1 0 0 0
2614 1 5.711980765546187 -3.5713082943714305 -14.601891539778897 4 0.0298415518297304 1 0.38201657176422377 -0.47001095295768125 -0.7957093450106778 1 0 0 0
2432 1 6.275774527791967 -3.921786421582254 -14.313604364610635 4 0.0298415518297304 1 0.336180903133815 -0.10229543492670601 -0.9362257340734063 1 0 0 0
3097 1 -3.1954921885036756 -1.9731561620440328 -14.078943763169322 4 0.0298415518297304 1 -0.2596597028844652 0.036984569100732174 -0.9649923430345883 1 0 0 0
3263 1 -1.303894763631023 -1.6517872078047993 -14.438729212987127 4 0.0298415518297304 1 -0.22384134894995364 -0.0750839930986936 -0.9717287509720088 1 0 0 0
3336 1 -2.3682986875933985 -2.060455647282055 -14.251396166042586 4 0.0298415518297304 1 -0.1525308715856445 0.03568806696327694 -0.9876536580126396 1 0 0 0
2914 1 -0.4902983422129873 -1.6894190666378102 -14.674593921902215 4 0.0298415518297304 1 -0.253051702948638 -0.05388220234006991 -0.9659506104841893 1 0 0 0
2470 1 -0.8187463920071842 -2.328070467607321 -14.483738954371734 4 0.0298415518297304 1 -0.07657126953852397 -0.21686097531478984 -0.9731946355815863 1 0 0 0
2925 1 0.08424844644189976 -2.2897044070449524 -14.699609790757542 4 0.0298415518297304 1 -0.17438495499874704 -0.3029934035420484 -0.9369018886015177 1 0 0 0
2438 1 1.0948407694527098 -1.4835394510321496 -15.138894865446497 4 0.0298415518297304 1 -0.262729139365295 -0.0047190233825181865 -0.9648578745932931 1 0 0 0
2670 1 1.0782739150784257 -2.310637639831155 -14.977454781775101 4 0.0298415518297304 1 -0.2759487539503829 -0.17443732129942066 -0.9452106302867703 1 0 0 0
2418 1 0.325816095911295 -1.5421200138653208 -14.941687731403247 4 0.0298415518297304 1 -0.2839399182352999 -0.25383722826833405 -0.9246322235951876 1 0 0 0
2576 1 1.9681240577988015 -2.3881117278560064 -15.062707666263732 4 0.0298415518297304 1 0.1544123838520656 -0.20185679930680972 -0.9671664598096507 1 0 0 0
2328 1 2.7753724094722365 -1.8518172229240653 -15.211848508356198 4 0.0298415518297304 1 0.004334677750959727 -0.376547175398453 -0.9263877228230315 1 0 0 0
2635 1 3.2235586915721144 -2.4444610637741477 -15.103811017302455 4 0.0298415518297304 1 0.03511542988034418 -0.06674054620038222 -0.9971523001639185 1 0 0 0
2691 1 3.5144916088291436 -1.4585393609689825 -15.258398304738698 4 0.0298415518297304 1 0.1017987398783999 0.05556567086968854 -0.9932520227283562 1 0 0 0
2429 1 4.121466518545526 -2.0654756323250636 -15.123984232411555 4 0.0298415518297304 1 0.20760623573938972 -0.25262688069761907 -0.945028503898751 1 0 0 0
3275 1 4.46732131946846 -2.6866503818845393 -14.862924978937944 4 0.0298415518297304 1 0.17530742069167798 -0.2296999511752534 -0.9573429438511142 1 0 0 0
2255 1 4.630306556562383 -1.4607868980301795 -15.038923992147579 4 0.0298415518297304 1 0.23419131773798507 0.10245233212928712 -0.9667770823035766 1 0 0 0
3511 1 5.1866920003035855 -1.9430319715585829 -14.903061252482575 4 0.0298415518297304 1 0.333880400962852 -0.16611229166271302 -0.9278635388323256 1 0 0 0
2315 1 5.382369329863367 -2.697995910890587 -14.747077186129504 4 0.0298415518297304 1 0.26503284961038603 0.026245808799819356 -0.9638818652500117 1 0 0 0
2573 1 6.733022225867279 -2.115130934467483 -14.250736194584666 4 0.0298415518297304 1 0.5854299958412349 0.09986051006126981 -0.8045488392718211 1 0 0 0
2419 1 5.992380408726772 -2.2215264645153843 -14.563047879804865 4 0.0298415518297304 1 0.40056082340272026 0.023576782455603792 -0.9159660935482141 1 0 0 0
4367 1 -1.9695904732281035 -1.3982760062206423 -14.335155746091967 4 0.0298415518297304 1 -0.24425876897198842 -0.16816607339094625 -0.9550168610854783 1 0 0 0
2820 1 -2.679113719750326 -1.1657565105863985 -14.219453798982379 4 0.0298415518297304 1 -0.13034475525565328 0.18571643610593147 -0.9739199892965823 1 0 0 0
3222 1 -2.038492996092798 -0.6137624162407506 -14.386749803946415 4 0.0298415518297304 1 -0.0862456037437987 0.03964531592553858 -0.9954850940546682 1 0 0 0
2536 1 -0.5070837355658213 -0.939082110292877 -14.801975473344047 4 0.0298415518297304 1 -0.40122574218100454 0.07352664673943447 -0.9130235601251243 1 0 0 0
4500 1 -1.279694342722493 -0.9399824341615032 -14.460880025066452 4 0.0298415518297304 1 -0.12478751298917608 -0.011308768105900108 -0.9921185239022116 1 0 0 0
3586 1 -0.6137740351081294 -0.15743045370776265 -14.637720236317815 4 0.0298415518297304 1 -0.22800231209463848 0.2501858193924487 -0.9409685239180045 1 0 0 0
2405 1 0.3572710635442808 -0.7504592454430835 -15.053657664536242 4 0.0298415518297304 1 -0.11289372630316685 0.003963860909583486 -0.9935990946081197 1 0 0 0
3194 1 1.3046642892041893 -0.7379984429602575 -15.073738881729344 4 0.0298415518297304 1 -0.3481678797979901 -0.09946747739252594 -0.9321402887662029 1 0 0 0
634 1 1.9879794416341015 -1.4436434146641615 -15.268105830417573 4 0.0298415518297304 1 0.020519576307872708 -0.34215692531479985 -0.9394191996341504 1 0 0 0
2280 1 1.8897305931362847 -0.10256542775955142 -15.31267246253054 4 0.0298415518297304 1 -0.07330314121066182 0.14803501116917328 -0.9862620085559379 1 0 0 0
3267 1 2.5330948236097743 -0.8975951914548209 -15.415997343380921 4 0.0298415518297304 1 0.07216906438584253 -0.18926205950984026 -0.9792714929378703 1 0 0 0
2355 1 3.3093835827516975 -0.5548700787366398 -15.345187352924238 4 0.0298415518297304 1 0.3518562425470722 0.11378015594194188 -0.9291134465502494 1 0 0 0
2296 1 4.033085130348694 -0.6430465004064368 -15.102895867132341 4 0.0298415518297304 1 0.27226184792533537 -0.04056557535223827 -0.9613674133038959 1 0 0 0
2251 1 5.058494595413793 -0.10276110198846429 -14.680671998082781 4 0.0298415518297304 1 0.30945833520948 0.20956885429820327 -0.927532883897124 1 0 0 0
3366 1 2.826196526223242 -0.028999956289066185 -15.248698267092113 4 0.0298415518297304 1 0.14663195993455827 0.2651351050539292 -0.9529966472552734 1 0 0 0
1955 1 4.891771242883797 -0.8743758478381128 -14.825425429273205 4 0.0298415518297304 1 0.21045084716404275 0.03022980271243829 -0.9771365630908013 1 0 0 0
1710 1 6.455803718124714 -1.3605979317348058 -14.27296557592241 4 0.0298415518297304 1 0.4101777901922789 0.05298032049983445 -0.9104657565211959 1 0 0 0
2321 1 5.680248585071305 -1.334658525519624 -14.626861774036085 4 0.0298415518297304 1 0.34953231011791563 -0.05283390427739698 -0.935433385416856 1 0 0 0
1795 1 6.431352484819669 -0.536401910471506 -14.150119038364997 4 0.0298415518297304 1 0.6096505089346397 0.35955054183299273 -0.7064347751415806 1 0 0 0
3348 1 5.79947650303425 -0.3676096230191149 -14.575522000434155 4 0.0298415518297304 1 0.14646535922696732 0.15834234215373805 -0.9764613255786345 1 0 0 0
3882 1 0.4833716926762365 -9.259465474714146 -12.723096237540952 4 0.0298415518297304 1 -0.234109806482962 -0.7186645860644783 -0.6547624471251249 1 0 0 0
2521 1 2.486922033937825 -8.89664345831864 -13.22104198390787 4 0.0298415518297304 1 0.3321916626911893 -0.6684171008118234 -0.6654838248333163 1 0 0 0
2922 1 1.4435465395506808 -9.47393630005163 -12.785359518670816 4 0.0298415518297304 1 -0.21929016107673746 -0.6798398400388456 -0.6998074869683055 1 0 0 0
4251 1 3.3677817023668757 -8.619631982076946 -13.235461753330043 4 0.0298415518297304 1 0.05292952899094614 -0.42213983356851564 -0.9049842022961191 1 0 0 0
2641 1 4.081069996895712 -8.999990071512082 -12.744298646707797 4 0.0298415518297304 1 0.20980831134413014 -0.5428744106490954 -0.8131841034718532 1 0 0 0
2645 1 5.2013047020869045 -8.726374914013345 -12.639821286475277 4 0.0298415518297304 1 0.33320882635978344 -0.5523730605303367 -0.7641044289318603 1 0 0 0
3750 1 -1.7691314656994932 -7.90350794730947 -12.821184633320655 4 0.0298415518297304 1 -0.2958836043499272 -0.44302360865761287 -0.8462763831526211 1 0 0 0
3228 1 -0.9680166013942019 -8.029549146128108 -12.923777262897193 4 0.0298415518297304 1 -0.20567905993190963 -0.32643731737502507 -0.9225700567986819 1 0 0 0
2625 1 -0.432840201302976 -7.712553025107036 -13.292947333324975 4 0.0298415518297304 1 0.003008995357243447 -0.4612041242237804 -0.8872894401980201 1 0 0 0
3000 1 0.2987032003965312 -8.276559427780423 -13.137417526570392 4 0.0298415518297304 1 -0.18479428757836683 -0.4434988438792426 -0.8770175493330672 1 0 0 0
2324 1 1.4637916910974043 -7.302356959118266 -13.774193146137971 4 0.0298415518297304 1 -0.36144922335910973 -0.42924869618162576 -0.8277074222196336 1 0 0 0
2413 1 0.8927481140787079 -8.85948926682192 -13.087628748501407 4 0.0298415518297304 1 -0.17460105408130036 -0.48234912012404413 -0.8584021567967194 1 0 0 0
2545 1 1.1176860335625558 -7.967893712488236 -13.377276042891207 4 0.0298415518297304 1 -0.24976800680392747 -0.29021434574053573 -0.9237921202914572 1 0 0 0
3279 1 0.33847872596454925 -7.457813593445516 -13.383616060829835 4 0.0298415518297304 1 -0.18535238249725405 -0.4561272816513028 -0.8703978831511398 1 0 0 0
2503 1 2.4948759453907963 -7.4503295608222775 -13.838401982114101 4 0.0298415518297304 1 -0.12730060859720613 -0.5306449511459206 -0.8379796517100666 1 0 0 0
2514 1 2.7380454629374578 -8.10248703236904 -13.416735239834765 4 0.0298415518297304 1 0.06691534698741425 -0.21875585693800959 -0.9734821249858013 1 0 0 0
2724 1 1.6623291312583628 -8.698675884427297 -13.17237224547224 4 0.0298415518297304 1 0.02313847410619722 -0.17216257259050755 -0.9847968885252713 1 0 0 0
2721 1 1.9307740098230448 -7.99393033535978 -13.504157436335104 4 0.0298415518297304 1 0.04848261267351134 -0.3707040825358202 -0.9274843115743931 1 0 0 0
2327 1 4.204063367607912 -6.954512641050352 -13.948151657767955 4 0.0298415518297304 1 0.38600740629250613 -0.4104483143128621 -0.8261544797930119 1 0 0 0
3115 1 3.9307236464225346 -8.0731987480836 -13.393937979732897 4 0.0298415518297304 1 -0.03947776981042163 -0.49478439789306494 -0.8681187288628167 1 0 0 0
2764 1 3.58152271217076 -7.346496584597079 -13.911669635779395 4 0.0298415518297304 1 -0.03940898224341724 -0.5160173377350604 -0.8556708272725899 1 0 0 0
2854 1 4.599332466719138 -7.55990253663221 -13.58807157716538 4 0.0298415518297304 1 0.03289066304925238 -0.32839582293016123 -0.9439676744927248 1 0 0 0
2299 1 5.498693454680541 -7.832155337635524 -13.166866529340966 4 0.0298415518297304 1 0.5800719039440404 -0.548758484880803 -0.6019808064880983 1 0 0 0
2662 1 4.716435904442893 -8.434580172175831 -13.086058012650312 4 0.0298415518297304 1 0.3353064422378173 -0.5730939136783013 -0.7477528993141417 1 0 0 0
2697 1 5.968388926875733 -7.086621786948375 -13.137360521567393 4 0.0298415518297304 1 0.46678733906180336 -0.4790940630206998 -0.7433561176145109 1 0 0 0
3314 1 -4.219174808799847 -5.994779882601938 -12.941669008216348 4 0.0298415518297304 1 -0.1827287481058433 -0.19358963025449852 -0.9639156408128243 1 0 0 0
2329 1 -3.5248718606662743 -6.314287812920135 -13.103922741015513 4 0.0298415518297304 1 -0.068527540375986 -0.44981355826128483 -0.8904900820381659 1 0 0 0
2891 1 -1.829825629229752 -6.141380645766999 -13.590438181159698 4 0.0298415518297304 1 -0.14882956943106457 -0.44240492311669416 -0.884379992977044 1 0 0 0
4248 1 -2.0006012335524943 -7.179429006056549 -12.969881429257972 4 0.0298415518297304 1 -0.27655245637195736 -0.3166774012291931 -0.9073231406441487 1 0 0 0
2864 1 -2.784760474173817 -6.964525380630847 -12.818545824328819 4 0.0298415518297304 1 -0.29117796159195874 -0.38793125268696205 -0.8744858373380762 1 0 0 0
3119 1 -2.685667552460878 -6.135427661054339 -13.237648739923916 4 0.0298415518297304 1 -0.07599718958699947 -0.3730985896179157 -0.924674597557973 1 0 0 0
2847 1 -1.2879667729005584 -7.075127469857322 -13.294295626757988 4 0.0298415518297304 1 0.00242091185728703 -0.5487417945149818 -0.8359881481888704 1 0 0 0
3132 1 -0.4528250541924332 -7.026150064921058 -13.697026002815699 4 0.0298415518297304 1 -0.10818600956221368 -0.3273558378238049 -0.9386875463633677 1 0 0 0
2548 1 -0.991085140705806 -6.310371122478855 -13.617935689872951 4 0.0298415518297304 1 -0.35617925940350054 -0.2456167951034734 -0.9015595222179577 1 0 0 0
2410 1 0.7775134097531573 -6.9125239052491985 -13.75294269778054 4 0.0298415518297304 1 -0.17820556911097138 -0.2052538088905012 -0.9623482902747719 1 0 0 0
2757 1 1.959181017098921 -6.7861619147942704 -14.162047460431141 4 0.0298415518297304 1 -0.2509747464772009 -0.4547946134321142 -0.8545019683896803 1 0 0 0
3501 1 4.830187318442128 -6.28537998113617 -14.163320218125028 4 0.0298415518297304 1 0.4590050048548554 -0.37100908503394536 -0.8072589663487603 1 0 0 0
2320 1 5.25460192265458 -6.79499890148686 -13.551348066040974 4 0.0298415518297304 1 0.3734246032841049 -0.5161628917386716 -0.7707983933410094 1 0 0 0
2462 1 5.47337716330586 -6.132818825907018 -13.725360769464352 4 0.0298415518297304 1 0.42946514973701044 -0.37480042151434884 -0.8216346643612559 1 0 0 0
2017 1 6.893988498866548 -5.698093837066357 -13.139586786659025 4 0.0298415518297304 1 0.43368668132894994 -0.28112239888966106 -0.8560875624206928 1 0 0 0
2762 1 6.176346988738835 -6.18136517847593 -13.319975637263996 4 0.0298415518297304 1 0.3229875565463835 -0.23848632515000148 -0.9158615642277192 1 0 0 0
3008 1 -5.782977113906148 -4.78132900175455 -12.75011975976306 4 0.0298415518297304 1 -0.461664282309155 -0.3548100701407845 -0.8130040738253802 1 0 0 0
4230 1 -5.157127091796899 -4.468333540012672 -13.067127057323864 4 0.0298415518297304 1 -0.34393488555708907 -0.24875990594766328 -0.9054436922430581 1 0 0 0
3341 1 -4.90096440485406 -5.277345505321055 -12.953496128642984 4 0.0298415518297304 1 -0.02854522834209675 -0.2887615088489687 -0.9569749756582795 1 0 0 0
2368 1 -3.5617966627259126 -5.375394860587488 -13.247217529436243 4 0.0298415518297304 1 -0.38096161134004264 -0.3109980525180123 -0.8707168570305747 1 0 0 0
2684 1 -3.325681167568472 -4.629443068483441 -13.579099828726676 4 0.0298415518297304 1 -0.001856926088415792 -0.3146799791873713 -0.9491962386240993 1 0 0 0
4185 1 -4.234178494600112 -4.8262529151760045 -13.208466236681568 4 0.0298415518297304 1 -0.10610560874219524 -0.25249397667857254 -0.9617634944514627 1 0 0 0
2389 1 -1.9974786964830338 -5.183309274197754 -13.75715614745451 4 0.0298415518297304 1 -0.36504411536813275 -0.20024560324443777 -0.9092001290086624 1 0 0 0
3268 1 -1.9666742812271045 -4.475373274253814 -13.829774120721387 4 0.0298415518297304 1 -0.2912651877991037 -0.08367531244204482 -0.9529761781246573 1 0 0 0
3085 1 -2.7189612983411835 -5.263449043078403 -13.527085330840226 4 0.0298415518297304 1 -0.2550439006441319 -0.20004230560654604 -0.9460104686116554 1 0 0 0
2562 1 -0.5151873973808366 -5.706023026318004 -13.972079683262145 4 0.0298415518297304 1 -0.05673439060360572 -0.20288515737251933 -0.9775576628126676 1 0 0 0
3220 1 -1.2196331054789977 -5.253119799700295 -13.832869470979881 4 0.0298415518297304 1 -0.3135117976057723 -0.16065805955748594 -0.9358948575957773 1 0 0 0
2363 1 -1.2428992697826988 -4.313876362007714 -14.028785099137552 4 0.0298415518297304 1 -0.3202802801873056 -0.15100224664245754 -0.9352102355176998 1 0 0 0
3562 1 5.394840534932492 -5.402039103371522 -14.040559069551337 4 0.0298415518297304 1 0.21368924768113137 -0.22466436466605036 -0.9507165147774977 1 0 0 0
3715 1 6.374847752982364 -4.882293354009941 -13.865810353067566 4 0.0298415518297304 1 0.38671479496382244 -0.47343145181188256 -0.7914002971293237 1 0 0 0
3719 1 6.06401800352568 -5.594806701688087 -13.640405194986423 4 0.0298415518297304 1 0.5140002408668186 -0.15006513769972638 -0.8445617369133027 1 0 0 0
2332 1 7.127820780182641 -4.927700978685604 -13.429086136475354 4 0.0298415518297304 1 0.37410787731227285 -0.24672220183750015 -0.8939639022792596 1 0 0 0
4257 1 7.910262841753246 -4.981504697595432 -12.952244500055942 4 0.0298415518297304 1 0.44430824636056004 -0.4267666478125544 -0.7876929789986951 1 0 0 0
3078 1 7.556906475175092 -5.582271559325523 -12.811010168151675 4 0.0298415518297304 1 0.40791848808079834 -0.4338688509508772 -0.8033435384102128 1 0 0 0
2443 1 7.541617462245063 -4.350177950759581 -13.551402765493624 4 0.0298415518297304 1 0.5397773061704205 -0.39884059945825795 -0.7413269320860948 1 0 0 0
2473 1 -5.411891614026123 -3.604051693339896 -13.12955227155552 4 0.0298415518297304 1 -0.44052193506509785 -0.25116124190155475 -0.8618921961486659 1 0 0 0
3044 1 -4.619506372535853 -3.944791493825079 -13.414559697474917 4 0.0298415518297304 1 -0.3289724292488685 -0.39834228347879425 -0.8562133925908882 1 0 0 0
2700 1 -4.841528554975074 -3.1048688866652445 -13.530027933079515 4 0.0298415518297304 1 -0.3619247797273503 -0.40216651908648643 -0.840994364933064 1 0 0 0
2531 1 -5.473068824510987 -2.671948260318486 -13.377119913254923 4 0.0298415518297304 1 -0.3149927244075604 -0.18097859621219703 -0.9316793941943575 1 0 0 0
4406 1 -4.121495609633144 -3.2694553302896376 -13.706706291746839 4 0.0298415518297304 1 -0.3755036350419509 -0.3133356592043425 -0.8722486870504658 1 0 0 0
2313 1 -2.607968384631225 -4.293903633611764 -13.801510407143732 4 0.0298415518297304 1 -0.16040159588396402 -0.30826559609019255 -0.9376801568674871 1 0 0 0
2575 1 -3.3037028448297048 -3.6605845002959176 -13.796849229009599 4 0.0298415518297304 1 -0.0992105340891571 -0.16604480360597318 -0.9811143806173661 1 0 0 0
4407 1 -3.9702187058791694 -4.0801075187738345 -13.611347193026335 4 0.0298415518297304 1 -0.34456506373181733 -0.3201183427204239 -0.8824959482011336 1 0 0 0
2559 1 -2.1817064332489506 -3.5032252421995884 -14.052787959621385 4 0.0298415518297304 1 -0.42647007465590636 -0.3916398834740998 -0.8153171860278545 1 0 0 0
2364 1 -1.3984941063997043 -3.574126084511497 -14.175143552500069 4 0.0298415518297304 1 -0.23890536663954118 -0.17402578638430616 -0.9553213137484949 1 0 0 0
3457 1 -2.546242984765931 -2.7868368331512303 -14.126190566128674 4 0.0298415518297304 1 -0.1740881569687767 -0.2957768629786906 -0.9392594932513055 1 0 0 0
2353 1 6.908227522507525 -3.305204707582102 -14.136988296516213 4 0.0298415518297304 1 0.5552418466589879 -0.2671731632973274 -0.7876077798837545 1 0 0 0
3718 1 8.204835030108587 -4.254983106402315 -13.048925730494293 4 0.0298415518297304 1 0.4043144227601456 -0.563116968109968 -0.7207138897487461 1 0 0 0
2659 1 6.867497001406998 -4.249739797702625 -13.915030061042449 4 0.0298415518297304 1 0.3737562082806342 -0.29348115018840154 -0.8798723990225945 1 0 0 0
3368 1 7.813794369166878 -2.7780220626448275 -13.585056357186447 4 0.0298415518297304 1 0.4940091289060318 0.07332921086337199 -0.8663590426455183 1 0 0 0
2442 1 7.440156697205927 -3.628039595995225 -13.771920323902904 4 0.0298415518297304 1 0.6086858498904456 -0.05808169142873001 -0.7912827032192248 1 0 0 0
2431 1 8.233978993348375 -3.513909922287226 -13.264040922282703 4 0.0298415518297304 1 0.675740595034353 -0.1271760385700508 -0.7260861871611713 1 0 0 0
2538 1 8.772610466016827 -2.998289942713882 -12.95957196756663 4 0.0298415518297304 1 0.4633741444292158 0.116660469281228 -0.8784497802621251 1 0 0 0
2617 1 -6.322115392570474 -2.2709918505484876 -12.878877537706703 4 0.0298415518297304 1 -0.5839518470982163 -0.08408083503534339 -0.8074223650360083 1 0 0 0
3208 1 -6.184194690654837 -1.3921036210736224 -13.027269146535117 4 0.0298415518297304 1 -0.3924308793814553 -0.023151814814809758 -0.9194901015930941 1 0 0 0
2307 1 -5.703001278938537 -1.976052000279174 -13.387811893014446 4 0.0298415518297304 1 -0.4429685513191135 -0.0655953778533345 -0.8941343225178889 1 0 0 0
1798 1 -4.907825737833706 -2.0707619161880175 -13.640656623616945 4 0.0298415518297304 1 -0.4264795158719105 -0.02997723545151928 -0.9040002084974013 1 0 0 0
3260 1 -4.578076195037616 -1.390173891153299 -13.828000520127778 4 0.0298415518297304 1 -0.2944687281240625 0.26480688486280934 -0.9182407177212585 1 0 0 0
2842 1 -3.389105870695549 -2.6940037931693728 -14.033587456610814 4 0.0298415518297304 1 -0.05860335905285127 -0.10149753587193419 -0.9931078805475506 1 0 0 0
3283 1 -4.1475416080870575 -2.5363041748149513 -13.93053516910271 4 0.0298415518297304 1 -0.16830324104523228 -0.1304088897228286 -0.9770705011097867 1 0 0 0
3244 1 -3.9338794199995974 -1.6561709889683367 -14.049238302105948 4 0.0298415518297304 1 -0.19382281349915814 0.09898586335547782 -0.976029913288031 1 0 0 0
2414 1 7.407832183286046 -2.3737458914892136 -13.995183612759135 4 0.0298415518297304 1 0.5364100096603354 0.06149655654638889 -0.8417140714037847 1 0 0 0
3422 1 7.972494199663379 -1.815312199262513 -13.49323771955831 4 0.0298415518297304 1 0.5729823235937849 0.08544520410794736 -0.8151009816078117 1 0 0 0
3259 1 8.387729032047583 -2.3850597463639147 -13.149955356824893 4 0.0298415518297304 1 0.4889130751719003 0.10075650129140874 -0.8664937699478686 1 0 0 0
2474 1 8.731766811658222 -1.7819612301955525 -12.813249837824186 4 0.0298415518297304 1 0.4821153190153705 -0.0927274378359386 -0.8711874428422908 1 0 0 0
3557 1 9.264764472313628 -2.325532847982366 -12.685668771975434 4 0.0298415518297304 1 0.2786605148816336 0.06217660447640902 -0.9583750385979838 1 0 0 0
3309 1 -6.422061890177656 -0.27620603492030843 -12.95843382190292 4 0.0298415518297304 1 -0.4865597348151321 -0.018123614512103967 -0.8734588839931992 1 0 0 0
4485 1 -5.829968772577405 -0.7626036206123912 -13.182810630441349 4 0.0298415518297304 1 -0.3330305778309479 0.04261291734228872 -0.9419528353612853 1 0 0 0
3026 1 -5.254766182138115 -1.230390157643364 -13.562477038460832 4 0.0298415518297304 1 -0.3143201461087222 0.08709703715797189 -0.9453135952135113 1 0 0 0
3475 1 -4.89259321469702 -0.3674752597546752 -13.425049680761154 4 0.0298415518297304 1 -0.3860555273909655 0.03464992867289272 -0.9218247551101277 1 0 0 0
2564 1 -3.386515667865019 -1.0658185833239067 -14.03851296914157 4 0.0298415518297304 1 -0.02221975401550557 0.3492411199243669 -0.9367691767615245 1 0 0 0
4318 1 -4.276935646181783 -0.6272948728163973 -13.775716306984306 4 0.0298415518297304 1 -0.35797350530018524 0.17820264742332445 -0.9165690990544119 1 0 0 0
4366 1 -2.8737403616206905 -0.35397228829465965 -14.07635309509367 4 0.0298415518297304 1 -0.3027164175831744 -0.001937593887417771 -0.9530783383020185 1 0 0 0
3353 1 7.32958152658342 -1.3925780910894117 -13.910949146888683 4 0.0298415518297304 1 0.46868762845637435 0.11633576592778244 -0.8756693094975613 1 0 0 0
2258 1 8.062328584985492 -1.0899859581937539 -13.385160135129157 4 0.0298415518297304 1 0.47319312420749005 0.01898089013626017 -0.8807541351554303 1 0 0 0
2283 1 7.107950610894728 -0.434282668896732 -13.851858385057328 4 0.0298415518297304 1 0.34158573144556953 0.2949875737825046 -0.8923574192781202 1 0 0 0
2356 1 7.782053108221335 -0.4083682131806702 -13.524755095779174 4 0.0298415518297304 1 0.5042981282362252 0.04055275458465691 -0.8625763662210068 1 0 0 0
2759 1 8.448709659948655 -0.3577221022043391 -13.100797115169248 4 0.0298415518297304 1 0.5239511336318254 -0.038057680803393064 -0.8508979993035546 1 0 0 0
3577 1 9.101450337618063 -0.9607190427175191 -12.868436681078306 4 0.0298415518297304 1 0.39171211964820696 -0.010345222977464588 -0.9200290940705382 1 0 0 0
2885 1 -1.0956641428269382 -10.141697915381872 -11.51372206975175 4 0.0298415518297304 1 -0.2871037807023217 -0.8048761261018331 -0.5193708583351007 1 0 0 0
2640 1 -0.3418599819564938 -10.40690603026357 -11.35488998893687 4 0.0298415518297304 1 -0.2706965086127198 -0.709267265775745 -0.6508938348708507 1 0 0 0