

    4560 atoms
    90 bonds
    61 atom types
    1 bond types
    
    -32.545466 32.545466 xlo xhi
    -32.545466 32.545466 ylo yhi
    -32.545466 32.545466 zlo zhi


    Atoms 

1 1 1.9679131926331817 7.588052698679151 13.294107316213765 1.0 1.0 1.0 0.0865037305621922 0.45390022249537987 0.8868441290612844 1 
2 1 -13.049609484437786 8.592699388341035 3.0179732596832785 1.0 1.0 1.0 -0.884113157882395 0.30000387641935916 0.35824754106843043 1 
3 1 5.2474438606731 -7.551720448820498 12.645574412664116 1.0 1.0 1.0 0.8004024623816492 -0.3196819620673589 0.507109909649926 1 
4 1 -8.856101746204965 12.01212953558281 3.448671412405454 1.0 1.0 1.0 -0.42302886853312965 0.7206335078794612 0.5493040084023806 1 
5 1 -5.013422130386834 13.389636410825211 4.943752455223384 1.0 1.0 1.0 -0.3130410525423358 0.8452286257773156 0.43312105711888144 1 
6 1 -10.410613903717184 9.452622367480489 6.136281873843886 1.0 1.0 1.0 -0.6852325302884786 0.6383534627726265 0.3506583275677991 1 
7 1 -2.8735669114751405 0.30448322032488656 15.399979068905422 1.0 1.0 1.0 -0.21473099607715798 -0.03638154469904639 0.9759954890254476 1 
8 1 -12.48558873016166 5.56198133457532 7.182331313397564 1.0 1.0 1.0 -0.6554414429879348 0.5461115593991797 0.5216881569342839 1 
9 1 -0.6624376831501518 -3.939648338257883 15.803300574173447 1.0 1.0 1.0 -0.013804640626288039 -0.08645607242503806 0.9961593757446725 1 
10 1 -5.013913841678425 11.078674782161976 9.567710309644905 1.0 1.0 1.0 -0.2835608134369263 0.776398227987745 0.5628492442044118 1 
11 1 1.1867464659822862 -5.546805936350645 15.566035117040059 1.0 1.0 1.0 0.021005147694926698 -0.3673755226954424 0.9298352809786069 1 
12 1 -6.944465160337929 13.978064599409104 0.2762825349242093 1.0 1.0 1.0 -0.3651412558719282 0.924667414004866 -0.10799212882347038 1 
13 1 -2.0034060071681785 10.439585297526678 10.965079832254048 1.0 1.0 1.0 -0.05936847113972918 0.6043598468862216 0.7944957799605947 1 
14 1 -1.7427496563115472 -6.621788323123192 15.10597647979533 1.0 1.0 1.0 -0.42019892671532505 -0.36600996293652116 0.8303428031798044 1 
15 1 -5.522275090595287 13.564761311799282 3.9511498936539033 1.0 1.0 1.0 -0.28881713951079974 0.8065273480404456 0.5158471297978163 1 
16 1 1.4601203876580502 13.08750345092226 5.580730334989468 1.0 1.0 1.0 0.3318233587380097 0.924700904891643 0.18660208516092017 1 
17 1 -9.168038348722982 8.674538930448733 8.665782539672845 1.0 1.0 1.0 -0.5517426068540499 0.5743249379989496 0.6047568468991485 1 
18 1 -7.520549403119583 13.564886952676819 -0.0567843954417494 1.0 1.0 1.0 -0.4797097221489652 0.8736699214069471 -0.08111536807869331 1 
19 1 -9.74444018319735 8.636563650609466 -8.662001920005777 1.0 1.0 1.0 -0.6539343822345322 0.6002681419208034 -0.4604872224150056 1 
20 1 -6.315180055202047 13.162444221166558 3.8959119631061516 1.0 1.0 1.0 -0.28254374776523355 0.9491969652857117 0.13854199224845806 1 
21 1 -8.068346480660702 5.6551264840449535 11.518104987174686 1.0 1.0 1.0 -0.7067946264143868 0.23703913472876997 0.6665230929501118 1 
22 1 -1.3890657206422992 1.2178424038405409 15.934661984921538 1.0 1.0 1.0 -0.3457074921061383 0.4040073597662102 0.8469141197585622 1 
23 1 -0.015217569683277112 5.183846492051277 14.573482107277556 1.0 1.0 1.0 0.21166232178260813 0.4415200929033562 0.8719281909390287 1 
24 1 -4.843292221542829 -3.0928533248519305 14.790050020090924 1.0 1.0 1.0 -0.4855907953045284 -0.19091627821464202 0.8530842500071053 1 
25 1 -0.6947537985126544 9.824473038933085 11.798722883036495 1.0 1.0 1.0 -0.0722939845000264 0.5477182458445393 0.8335335375526833 1 
26 1 -8.50553157056985 6.674353144637575 10.64778183442376 1.0 1.0 1.0 -0.5567620560376145 0.37264289148148555 0.742396866250179 1 
27 1 -3.983954024192323 0.24617649769849886 15.219206645466503 1.0 1.0 1.0 -0.2915835831131696 0.13010084407725306 0.9476567352429209 1 
28 1 3.159039453762772 5.218309637776457 14.35136211790989 1.0 1.0 1.0 0.08675652047213804 0.3017126902554471 0.9494431771898663 1 
29 1 -1.273982780129085 11.87158803363573 8.682776523218216 1.0 1.0 1.0 -0.003724736717323663 0.8812307178176038 0.47267200019893046 1 
30 1 -0.914567060451496 -1.8347262115243042 16.114106533103758 1.0 1.0 1.0 -0.13069986787268473 -0.2426407823298498 0.9612717929141693 1 
31 1 4.5280906410725965 -6.34186865864864 14.187058433392313 1.0 1.0 1.0 0.7458519703062784 -0.3609205121299115 0.5598583081853165 1 
32 1 -3.791887990224814 9.815364186620293 11.22144475706438 1.0 1.0 1.0 -0.16667123269760722 0.47249124195185027 0.865432490531675 1 
33 1 -5.056754937050931 -2.0480770551275604 14.747211872505398 1.0 1.0 1.0 -0.36346282577312466 -0.03479689042842942 0.9309587504564996 1 
34 1 4.915916901267252 -6.899170826087471 13.350451014118613 1.0 1.0 1.0 0.4086171909073344 -0.6418410885316901 0.6489008622196877 1 
35 1 3.049219648532369 -8.65684609367016 13.213287495448984 1.0 1.0 1.0 0.3846617964715726 -0.7039773637567157 0.5970354586952163 1 
36 1 -6.180948227146868 -7.274834517964314 12.760987981803375 1.0 1.0 1.0 -0.44180611826530974 -0.4959283689600985 0.7475707381304566 1 
37 1 -5.436674322268367 8.413863485399455 11.44746765095512 1.0 1.0 1.0 -0.28697774648971025 0.5682836041051984 0.7711665980719692 1 
38 1 -7.209169388766641 11.955859935960909 6.181449007943818 1.0 1.0 1.0 -0.3508496909731901 0.8748443369923609 0.3339927523186894 1 
39 1 -7.194754090671666 8.559254082697665 10.301639432476852 1.0 1.0 1.0 -0.4785024492601769 0.4530135413434728 0.752206828966912 1 
40 1 -7.091583578938983 13.382093040363047 -3.1313411690607245 1.0 1.0 1.0 -0.3299745533921327 0.9431872846877464 -0.038924333340707246 1 
41 1 -6.635775107619507 6.256899091516473 12.103045923805903 1.0 1.0 1.0 -0.5024242248929045 0.506021635381827 0.7010799959143501 1 
42 1 9.845387876247937 -2.060492457754502 11.215368071882546 1.0 1.0 1.0 0.636856388713279 -0.23037701676488945 0.7357579542971933 1 
43 1 -5.788691801010774 7.803609222379142 11.46804353532071 1.0 1.0 1.0 -0.5444949681965355 0.2735540150547052 0.7929024672947511 1 
44 1 -13.856193742291833 8.516423124161022 -0.4642432183505775 1.0 1.0 1.0 -0.624902578204028 0.7576918999071265 0.18814923582647822 1 
45 1 -4.547260052118433 9.509566351267175 11.310879428779645 1.0 1.0 1.0 -0.5339983026272445 0.44123009167317295 0.7212221129820586 1 
46 1 -1.8139900651814218 14.471589567866102 1.4758644601978275 1.0 1.0 1.0 0.010378736097294963 0.9821443134104941 0.1878409235881564 1 
47 1 -1.7662116335082492 -0.08644568563159731 15.864367288686866 1.0 1.0 1.0 -0.5676596307281261 -0.04143313196537424 0.8222194915672745 1 
48 1 -12.390916928518964 2.430350089972551 8.436158853821604 1.0 1.0 1.0 -0.6654781492349743 0.24005800487722218 0.7067612631937046 1 
49 1 -12.756324623604469 -0.9267762319036931 8.623184137379 1.0 1.0 1.0 -0.7038626534628161 0.06283035653990961 0.7075520413449113 1 
50 1 -2.9798781768233416 12.401921021606244 7.7393680002797 1.0 1.0 1.0 -0.013103568911674605 0.7728214558499598 0.6344878400960302 1 
51 1 2.4482191117015235 12.024369978092391 7.361183380603354 1.0 1.0 1.0 0.18977013043290472 0.7983772725326554 0.5714719772524248 1 
52 1 -5.960835779844491 8.958699410859147 10.640547120831563 1.0 1.0 1.0 -0.485514263297916 0.3488577716909466 0.8016066673014325 1 
53 1 -11.297954203849436 8.858225562976868 5.6178039871844465 1.0 1.0 1.0 -0.5915903692410248 0.6515176165006538 0.47491747806495305 1 
54 1 9.340012008592375 -2.9051604142546954 11.39060781151302 1.0 1.0 1.0 0.8375866016983698 -0.19428244593929755 0.5105909744690169 1 
55 1 -9.794450577987357 11.071974531977995 3.787788334878107 1.0 1.0 1.0 -0.4527425037281676 0.7036853877252379 0.5475871466177158 1 
56 1 -11.30514940165964 -5.190601708892061 9.47928771190505 1.0 1.0 1.0 -0.5850398358082394 -0.26769453213634625 0.7655505265315746 1 
57 1 1.0753277571618831 6.577748146882944 13.908600601662007 1.0 1.0 1.0 -0.012790120877200868 0.41152622549554807 0.9113082114714726 1 
58 1 -9.727356153532318 5.963255930298991 10.005978610774463 1.0 1.0 1.0 -0.7171739450870513 0.32195901067041893 0.6180647461564205 1 
59 1 -2.236394419523894 3.25653258973274 14.788316226068101 1.0 1.0 1.0 -0.09571549908473957 0.10166735982014077 0.9902027551467231 1 
60 1 -3.874545352152157 8.189305939089998 12.118681694527856 1.0 1.0 1.0 -0.25992020304775204 0.2729719006889554 0.9262435384146407 1 
61 1 -3.423215839318875 -2.144834580269822 15.488886737762671 1.0 1.0 1.0 -0.43859427758797714 -0.11069163130506858 0.8918424762115242 1 
62 1 0.7147036615946492 4.794522438194528 14.64439764252325 1.0 1.0 1.0 0.020770099495603614 0.48925145148492805 0.8718959039821402 1 
63 1 5.78496813204289 -5.664782839950471 13.519331693629537 1.0 1.0 1.0 0.6568954128625705 -0.35215109954519513 0.6666921672910392 1 
64 1 -5.292269679257296 0.11136646532943675 14.721286476824968 1.0 1.0 1.0 -0.5330894201971763 0.12409373596785475 0.8369092012323553 1 
65 1 -2.387300256786141 9.843552893179027 11.686879682716384 1.0 1.0 1.0 -0.17676308933444576 0.654089538171062 0.7354734463691465 1 
66 1 -3.676897787149682 14.463444215314148 1.6246109900398154 1.0 1.0 1.0 -0.027341141809271656 0.9970023227435715 0.07237382694378201 1 
67 1 -10.137446625786998 1.2660283062749236 10.765171554289958 1.0 1.0 1.0 -0.5849166182472645 -0.09097957099017473 0.8059750915137687 1 
68 1 3.6761056910252172 -3.4443115366841672 15.563779465267361 1.0 1.0 1.0 0.22882645590652861 -0.40299245446955767 0.8861355665409548 1 
69 1 -11.95133411348103 2.970395486116324 8.708644857163122 1.0 1.0 1.0 -0.7639225017190784 0.2322236199239101 0.6020757758336569 1 
70 1 -6.8960166012256225 1.8195849006961728 13.580385154723754 1.0 1.0 1.0 -0.34650989671621607 0.19983702001336606 0.9165131124173266 1 
71 1 -6.86790281224722 -1.1804955183735453 13.720341511470394 1.0 1.0 1.0 -0.5254723539091977 0.12089548488720414 0.8421775126545559 1 
72 1 0.687936988251026 8.530163341950155 12.864119238659981 1.0 1.0 1.0 -0.01186694980343735 0.6717267178639419 0.7407040859108982 1 
73 1 -8.966898995300733 3.240200301181797 11.933440595113952 1.0 1.0 1.0 -0.609951198120132 0.2537749802012219 0.7507044134149504 1 
74 1 -7.250887945389416 -8.608555436978008 11.079285711169986 1.0 1.0 1.0 -0.369309277115997 -0.665394500826923 0.6487375256167547 1 
75 1 -4.318992669547865 -5.542292578715095 14.470078023893418 1.0 1.0 1.0 -0.3150554049603523 -0.12289106634476986 0.9410837166585735 1 
76 1 -5.375864488764516 -3.4390929917911084 14.355821369577876 1.0 1.0 1.0 -0.5323221538950536 -0.2399636735595288 0.8118190804935215 1 
77 1 -2.6709697246931383 2.6510358222462584 14.909872428470338 1.0 1.0 1.0 -0.3102474734437116 0.4621167073756277 0.8307800039138532 1 
78 1 -2.7260590282228576 -9.573931280564342 12.340643035327062 1.0 1.0 1.0 -0.35289795008954544 -0.7622769869488983 0.5425841959730354 1 
79 1 4.822192052219789 1.5333393665256838 14.729626110236754 1.0 1.0 1.0 0.382833302941947 0.13299498331032608 0.9141946421669979 1 
80 1 -2.6404901739616977 -0.6601790036411167 15.550908170967006 1.0 1.0 1.0 -0.3126275925728036 0.12077049545602746 0.9421671306447909 1 
81 1 1.646266541676844 -14.224209951413753 2.0018899366884546 1.0 1.0 1.0 -0.1533348721828196 -0.9767213162312355 -0.15001355687470697 1 
82 1 -8.609758659762115 7.18719381990665 10.14116788283089 1.0 1.0 1.0 -0.6402104218096457 0.3451080819953575 0.6863170075648726 1 
83 1 -11.432210713762077 -7.410640543086658 7.0798694951760766 1.0 1.0 1.0 -0.8294531026409304 -0.4447124152861706 0.33799031968190263 1 
84 1 -9.878185150801645 10.428523712809158 5.1826792901565115 1.0 1.0 1.0 -0.6103587298396612 0.73439156359785 0.29686825712564985 1 
85 1 -12.966064219350745 0.9389026635345468 -8.174303482107456 1.0 1.0 1.0 -0.8481887371662922 -0.0029984314702934285 -0.5296858722893865 1 
86 1 -9.475920250721686 9.603625665484527 7.4312397659567155 1.0 1.0 1.0 -0.6135314738472676 0.6476793769733751 0.4517636790183338 1 
87 1 -13.279284827880277 5.4172175827889255 6.416241441430639 1.0 1.0 1.0 -0.6786485923688311 0.28543654965204246 0.6767288290087403 1 
88 1 5.353005725348265 -8.472394478126597 11.270618814873435 1.0 1.0 1.0 0.4497509011699309 -0.6922727392402894 0.5643425364577628 1 
89 1 -6.979694987113942 0.08514591628905965 13.572098965221171 1.0 1.0 1.0 -0.4999671662672461 0.008392436466515524 0.8660041472936809 1 
90 1 -12.053824539714572 -5.498165735302039 8.169321351227822 1.0 1.0 1.0 -0.7330244089379874 -0.45410352803066373 0.5064237043723551 1 
91 1 -3.94698446531334 3.29129146727243 14.353654999523284 1.0 1.0 1.0 -0.2331648937569506 0.2759933239527422 0.9324496507843342 1 
92 1 -8.103869249230922 12.234374972327759 3.6055920587686217 1.0 1.0 1.0 -0.4149850655685858 0.9091351248034772 0.035510514620349556 1 
93 1 -0.8575008368529187 1.7822232610350373 15.845857472542852 1.0 1.0 1.0 -0.35445176121572075 0.400442602768993 0.8449904700425136 1 
94 1 -12.19105143587072 -7.445521616350817 4.725456054476299 1.0 1.0 1.0 -0.8398942744665977 -0.4764647052858069 0.2599224431963053 1 
95 1 -6.298525354638374 -11.432992869039843 8.375223407754328 1.0 1.0 1.0 -0.30903381935694924 -0.8523917673920351 0.421812793766309 1 
96 1 -6.968610856406143 2.5289702469539073 13.230973507905903 1.0 1.0 1.0 -0.5011672192825063 0.23129434193664195 0.8338666612101336 1 
97 1 1.2171166067275687 7.619187278783003 13.484441663548873 1.0 1.0 1.0 -0.015083866592452332 0.5259142356914492 0.8504041825007096 1 
98 1 -7.87555629292622 12.018404389590776 4.847589103020856 1.0 1.0 1.0 -0.42139212425227324 0.7687429900972169 0.4811049219146975 1 
99 1 -1.2791322267026262 -8.610343036548903 13.696771439645818 1.0 1.0 1.0 -0.09034758349127969 -0.8236776971588684 0.5598150242056297 1 
100 1 -2.926352808655631 3.7246929527976347 14.437019687383957 1.0 1.0 1.0 -0.15986365262644917 0.31347219216312394 0.9360440155753229 1 
101 1 -14.871315760689082 -4.714741407281787 -1.2117508117742513 1.0 1.0 1.0 -0.895571258474577 -0.43699361445938134 -0.08359566905640696 1 
102 1 -13.513148802833404 -4.182073188429073 6.731968754033818 1.0 1.0 1.0 -0.8003136981337214 -0.19897988030427816 0.5656018805021967 1 
103 1 -10.472620316850959 11.106899887178109 3.4422332548187073 1.0 1.0 1.0 -0.7156137525148113 0.5733509776374539 0.398956935088045 1 
104 1 -15.916850938968633 -0.9264599730336334 2.491431340894024 1.0 1.0 1.0 -0.8705757113174182 -0.35377578760123835 0.3419651826155622 1 
105 1 -3.381403450903953 0.9562159520335921 15.268378847002912 1.0 1.0 1.0 -0.3998163764295104 0.12450890111902259 0.908099628095348 1 
106 1 -5.5795516220377115 4.752770458459921 13.393185637427434 1.0 1.0 1.0 -0.14546707926254934 0.1818677149835691 0.9725032538287358 1 
107 1 -7.541411781931166 0.6444058764092646 13.178534303192183 1.0 1.0 1.0 -0.6719463361280935 0.14000230813079942 0.7272465356611059 1 
108 1 -5.540744738893194 -12.956179267055145 6.548412454009996 1.0 1.0 1.0 -0.23295435949102858 -0.8112824989680172 0.5362402455871192 1 
109 1 -2.9847377653929366 9.91012900303138 11.254334177389703 1.0 1.0 1.0 -0.2516817758044414 0.7657666757655616 0.5918258047566736 1 
110 1 -16.217664592050678 1.3162148413839012 0.1837115626081144 1.0 1.0 1.0 -0.9831661597413883 -0.14151306328017338 0.1155790759672042 1 
111 1 7.869796129303863 -7.344875970085899 9.862400922723621 1.0 1.0 1.0 0.7372842500825192 -0.30537436550613756 0.6026260848079688 1 
112 1 -5.43261828340679 -2.6348169281545615 14.551081722802971 1.0 1.0 1.0 -0.38090277905643005 -0.16535785973324682 0.909708956164843 1 
113 1 -4.7026411507754045 4.643339949749612 13.722982259625446 1.0 1.0 1.0 -0.26277624174384584 0.24853194248610957 0.9322981504454789 1 
114 1 -10.767630761920339 -7.118199263667079 8.808073331870908 1.0 1.0 1.0 -0.699535116644756 -0.6290471903495483 0.33904249576144124 1 
115 1 -6.165447645914165 -1.0082714845710516 14.25684571595513 1.0 1.0 1.0 -0.3661283970862515 0.01290323771382657 0.9304749356154376 1 
116 1 -10.408486338987386 -7.017629120332083 9.50238135957586 1.0 1.0 1.0 -0.7851333721290099 -0.41329476441190255 0.4612507244406663 1 
117 1 -3.8259208011924026 -1.2370275111741862 15.153259086746656 1.0 1.0 1.0 -0.2743276404736736 -0.08559707384485463 0.957818878432841 1 
118 1 2.610400038059958 -10.050938762952292 11.514858562172362 1.0 1.0 1.0 0.17791155785339438 -0.8124558037823185 0.555213857522131 1 
119 1 -8.617916123315776 5.8042833227189305 10.954080791416148 1.0 1.0 1.0 -0.47238433993934237 0.33371173317801395 0.815775603423759 1 
120 1 -4.959102048907831 -8.097032677839092 12.833067604367624 1.0 1.0 1.0 -0.46361752066711087 -0.6186132249263181 0.6343316465089394 1 
121 1 9.841967640490218 4.588950209091044 10.804484580582413 1.0 1.0 1.0 0.5579051470493884 0.3799771130799686 0.7378069501449637 1 
122 1 -6.556908287337226 4.03024258957813 13.03887007474651 1.0 1.0 1.0 -0.39090667742698976 0.1505992099470502 0.9080263057529313 1 
123 1 -10.792098765862471 -3.8996251573968728 10.248524464868218 1.0 1.0 1.0 -0.7064364464505736 -0.07964522683021907 0.7032810985640441 1 
124 1 -9.946212025160737 3.535729102904171 10.972120181567945 1.0 1.0 1.0 -0.73161781939511 0.26527830482068676 0.6279826058267912 1 
125 1 -5.973156541881729 3.7684701538314673 13.464862591343703 1.0 1.0 1.0 -0.4037377926880575 0.1032358302034997 0.9090312039878332 1 
126 1 2.3780245912862013 10.88868512887484 10.20443700332298 1.0 1.0 1.0 0.3427066804933312 0.7962418878257411 0.49854895769115976 1 
127 1 -4.665624086053112 -7.278777762606172 13.639532693550093 1.0 1.0 1.0 -0.31386099026768516 -0.5989477695220093 0.7367177327143674 1 
128 1 -1.1322727590247486 -2.525908526556279 15.789124764035556 1.0 1.0 1.0 -0.22557529933034412 -0.3390890279605365 0.9133095671095337 1 
129 1 -11.240215269995712 2.5005801127233633 9.838836304835372 1.0 1.0 1.0 -0.7192173120962431 0.2624456020233631 0.6433108229150585 1 
130 1 -1.5606125744401331 -7.360651186226972 14.716340024384403 1.0 1.0 1.0 -0.32253742940904434 -0.4335436635321349 0.8414330317918004 1 
131 1 -3.232505306397987 -4.324632315530329 15.069836130569678 1.0 1.0 1.0 -0.38185529178410454 -0.03808016416529902 0.9234376345799538 1 
132 1 -12.909966025023728 4.9175727608966096 6.997438356295406 1.0 1.0 1.0 -0.6926702566363827 0.30355699084920057 0.6542636975500523 1 
133 1 -10.205772958910797 -0.005449257636927758 10.671559088450511 1.0 1.0 1.0 -0.6193682547861208 0.07726019045774662 0.78129035025311 1 
134 1 0.8562245658360831 1.7429475957400191 15.836902263536599 1.0 1.0 1.0 -0.022468602492951295 0.1997708339070575 0.9795849384469386 1 
135 1 -3.61660446636189 -11.25694209170206 9.596213517066905 1.0 1.0 1.0 -0.13349764182261903 -0.8547526039752364 0.5015740389018878 1 
136 1 -7.551363235525568 6.242591110202265 11.62844972212237 1.0 1.0 1.0 -0.5239385828573867 0.2221338203666368 0.822280066603658 1 
137 1 -8.033001647612496 -9.045521852048433 10.161319300911513 1.0 1.0 1.0 -0.4060655856571014 -0.6476316633438238 0.6447356408152628 1 
138 1 -2.6343926228161285 8.250465904114524 12.357240508231836 1.0 1.0 1.0 -0.05050121646050203 0.6225637329674143 0.7809384852315114 1 
139 1 -0.37338297073458293 7.589819109316972 13.242007589377641 1.0 1.0 1.0 -0.5288539358716393 0.42442009583647006 0.7349703933739359 1 
140 1 -7.6091102098425205 4.893711455290232 12.131146103993085 1.0 1.0 1.0 -0.3713323941681372 0.16545337350176534 0.9136400294625038 1 
141 1 -3.2685696215534383 -6.924160160436254 14.337312211117615 1.0 1.0 1.0 -0.5087938549422438 -0.4430906977374606 0.7381054742416842 1 
142 1 -1.9191677660064055 -3.573949863693404 15.484445115140417 1.0 1.0 1.0 -0.13590259187955403 -0.20165012305795374 0.9699832031768031 1 
143 1 15.30380462060688 2.8018154531761907 0.9793482074394666 1.0 1.0 1.0 0.8216124389222613 0.49466561968311235 0.2833003852693043 1 
144 1 6.9115420407541714 -5.855563431538604 12.310963849521187 1.0 1.0 1.0 0.6654719339968964 -0.36625150403137186 0.6503889482111367 1 
145 1 -12.330383557582891 -3.8629378312769878 8.754390014739313 1.0 1.0 1.0 -0.7119462783955433 -0.28855917405793713 0.6402084309189755 1 
146 1 -10.009438155683991 -5.632340989434857 10.756793265625422 1.0 1.0 1.0 -0.6150903918065252 -0.06448616819349764 0.7858153540909052 1 
147 1 -1.1091356678042432 4.367385173785831 14.596150141510853 1.0 1.0 1.0 -0.18977505841544287 0.1892276879308508 0.9634200662004917 1 
148 1 -2.461055724168245 11.227890800266678 9.667320693465529 1.0 1.0 1.0 -0.16703511527356824 0.9165707961611471 0.3633147046336916 1 
149 1 -8.767516781909396 0.9057493747011013 12.071391448887084 1.0 1.0 1.0 -0.723658855234807 -0.06800557213566227 0.6867986553013553 1 
150 1 -7.4264146793868715 -5.159819190423304 12.72028838261261 1.0 1.0 1.0 -0.5535012192056873 -0.24492353472850792 0.7960211079531189 1 
151 1 -9.379899237103073 5.477993022667413 10.403372869152596 1.0 1.0 1.0 -0.5378048894869842 0.345631842076268 0.7689633324059467 1 
152 1 -1.8872507655771953 3.8628446117284683 14.616794098822956 1.0 1.0 1.0 -0.19554968297732025 0.1843488574592958 0.9632112903013138 1 
153 1 -0.7374735287661859 -6.675944784795286 15.316913007114747 1.0 1.0 1.0 0.04361761571265675 -0.21390309082526157 0.9758808878141546 1 
154 1 -2.1053110053466533 0.5892837876124417 15.637988592694226 1.0 1.0 1.0 -0.27680092465984396 0.23601524699860593 0.9314919038304318 1 
155 1 -1.486442775693433 5.884413322827005 14.116080646314595 1.0 1.0 1.0 -0.22220249753426494 0.5796110350173965 0.7840133701752777 1 
156 1 -1.6585602990587707 -1.767357707803766 15.893205585685806 1.0 1.0 1.0 -0.41006668637205673 -0.13584746555052557 0.9018817121132572 1 
157 1 2.605306609705381 6.921417508885446 13.748157986767787 1.0 1.0 1.0 -0.11618130265359415 0.5212938554350435 0.8454319956852722 1 
158 1 -5.264522512321711 4.107382488596272 13.519773994938522 1.0 1.0 1.0 -0.31136991308784356 0.2449932723415561 0.9181651823359699 1 
159 1 -5.285594450160136 6.978780413788853 12.432659357411795 1.0 1.0 1.0 -0.35977247089134473 0.5457884055342989 0.756755517275602 1 
160 1 -6.91158719940455 0.8954507978268264 13.75607674437162 1.0 1.0 1.0 -0.731046078437822 -0.004824371401145488 0.6823114679984981 1 
161 1 4.048899914694139 2.937630141243832 14.904830573611354 1.0 1.0 1.0 0.20077885509949608 0.310524988444272 0.9291196052186284 1 
162 1 -1.7000934419573017 -11.714904612808715 8.93322914149637 1.0 1.0 1.0 -0.039373750128372575 -0.9264544562655921 0.3743410814704348 1 
163 1 1.879764458551498 -6.6074024069417465 15.142249136822159 1.0 1.0 1.0 0.10395303164472153 -0.3111569772747853 0.944656322304091 1 
164 1 -1.189938904452659 -3.4014876381148746 15.602729944641302 1.0 1.0 1.0 0.05563831889811082 -0.044317832027041 0.9974669970302853 1 
165 1 -2.6938584979292357 -2.6307935291653246 15.457510562178763 1.0 1.0 1.0 -0.1527245504886008 -0.259778832766724 0.9535142361189021 1 
166 1 -4.536903825064807 -0.4670034104961743 14.920933092046463 1.0 1.0 1.0 -0.3592655834633907 -0.17883764654167875 0.9159391245099988 1 
167 1 6.247500531935913 -6.055336574893032 12.823425294073717 1.0 1.0 1.0 0.6630985137546132 -0.3121620648843827 0.6803343355127255 1 
168 1 -5.422879577222958 -11.97521605553131 7.969411780891628 1.0 1.0 1.0 -0.2690700932767487 -0.8324820749889473 0.4843292725606604 1 
169 1 -0.7151474323859663 -9.512038593182307 12.709260975408466 1.0 1.0 1.0 -0.06502563173791762 -0.746699474773705 0.6619745342804039 1 
170 1 -10.262615922162535 -6.229550616910011 10.344511478219633 1.0 1.0 1.0 -0.7623951692023152 -0.30584354321973123 0.5702746023757094 1 
171 1 1.8723088583949403 8.939371010022994 12.41695307924503 1.0 1.0 1.0 0.3374894025438434 0.7385249315837942 0.5836803322588071 1 
172 1 -2.6591409121877585 -6.7284942497924565 14.75104573075403 1.0 1.0 1.0 -0.4204107663821307 -0.34890698390313035 0.8375669615586624 1 
173 1 -6.215168256480968 -7.935653404792449 12.176335189590011 1.0 1.0 1.0 -0.33391449538130324 -0.6180609254719149 0.7116894887344127 1 
174 1 -2.774654626187611 -5.225511441569662 15.07854505561942 1.0 1.0 1.0 -0.39722438625853024 -0.016843567885128023 0.9175668890148735 1 
175 1 -10.914442792709334 -0.5522565365722041 10.21748395671983 1.0 1.0 1.0 -0.549676520543807 0.050693785067539056 0.8338382286938995 1 
176 1 1.2957832854566793 -12.512866011973982 7.513718315553552 1.0 1.0 1.0 -0.016233925455818112 -0.8842143324569578 0.46679850024179737 1 
177 1 -9.596686852026103 -2.018626893753177 11.561827594402107 1.0 1.0 1.0 -0.6711770265315984 0.03716929582813574 0.7403643793496839 1 
178 1 -6.226475542122944 -5.436744301413266 13.543679413198195 1.0 1.0 1.0 -0.2685277349396904 -0.1767099727608097 0.9469252681685251 1 
179 1 -6.2656922010134295 -3.6010135989125613 13.93406314095399 1.0 1.0 1.0 -0.48089826853596757 -0.24858152021563273 0.8407994090604449 1 
180 1 -2.4581997080096283 -1.7944149612621194 15.680082853448107 1.0 1.0 1.0 -0.30855665988772324 0.013254570225056243 0.9511133549010238 1 
181 1 -8.24131260673219 -1.5836054189171074 12.810136967651587 1.0 1.0 1.0 -0.6625127876862124 -0.03040268134133395 0.7484335180024348 1 
182 1 0.5013277868699729 10.141390334758725 11.159359407858176 1.0 1.0 1.0 -0.032272749529830703 0.6665465093877908 0.7447649301898798 1 
183 1 -7.347349979869304 9.443548749768269 9.80362245852524 1.0 1.0 1.0 -0.6228006565901275 0.23177818515675438 0.7472609467965974 1 
184 1 -14.156187012494259 8.109130174456324 0.09800560029823704 1.0 1.0 1.0 -0.8896613387359033 0.45470010169520786 -0.04182838359305772 1 
185 1 -4.556353606471504 -14.38792171986309 -0.11069495745067352 1.0 1.0 1.0 0.03466423067791283 -0.9617794202087511 0.27162422302774714 1 
186 1 -12.934083319559566 -5.302698087976496 6.969791394919875 1.0 1.0 1.0 -0.8920052413295076 -0.20084136702593708 0.40495724572458236 1 
187 1 -1.6500010462586752 -10.155753167920466 11.825302937108695 1.0 1.0 1.0 -0.028811618390930674 -0.8062721928226713 0.5908431309033018 1 
188 1 -7.418308210905406 -10.460400991638823 9.266097583629259 1.0 1.0 1.0 -0.5357245427033461 -0.6295385820255744 0.5627432594927456 1 
189 1 -7.374729877037621 -4.240155258672426 12.937520095379885 1.0 1.0 1.0 -0.6766543751629431 -0.18480759712305683 0.7127308609001362 1 
190 1 3.7973046581634793 -10.273197064984984 10.25198508034914 1.0 1.0 1.0 0.5640346744241457 -0.7249381559233588 0.39538595905101065 1 
191 1 5.653926613361971 3.8796987947053387 13.826189819451628 1.0 1.0 1.0 0.619444549196103 0.1224078332290206 0.7754382662471675 1 
192 1 -4.289712121175353 -12.950326540413219 7.026812562263098 1.0 1.0 1.0 0.14404183080291502 -0.8330980458177013 0.5340410660086652 1 
193 1 0.9148185144765739 -10.597344674033685 11.380504550298776 1.0 1.0 1.0 0.180440799035962 -0.8193880460558468 0.5440986420613868 1 
194 1 -0.03094753693679031 -10.71045738581479 11.058287022536618 1.0 1.0 1.0 -0.0713444640206887 -0.880076497203251 0.46944173077503076 1 
195 1 9.975265363871316 6.124235495162115 9.610775592177674 1.0 1.0 1.0 0.5455727659027515 0.5455456798981657 0.6361840314175368 1 
196 1 -5.049630968438882 -1.0552230843579922 14.730987183237296 1.0 1.0 1.0 -0.471764732509691 0.06792638793495422 0.8791046655092725 1 
197 1 -11.737074966573346 -7.522055858584473 6.252647380198512 1.0 1.0 1.0 -0.779766459485112 -0.5198831335453332 0.34883529079228603 1 
198 1 -14.147472261523314 1.307136898041281 7.0948206826140625 1.0 1.0 1.0 -0.7326535478619676 -0.03118432059558653 0.6798864116690843 1 
199 1 -9.275998954360935 -10.131770104642785 6.753464479888926 1.0 1.0 1.0 -0.5948476819893549 -0.7913975306849561 0.14087573504562503 1 
200 1 -9.650098033991483 7.411434822374865 9.19122834342978 1.0 1.0 1.0 -0.6237670567068403 0.4918605507712733 0.6074444494999236 1 
201 1 -2.1212400029414784 5.454815004266303 14.190402999422115 1.0 1.0 1.0 -0.3100548459894906 0.1295054369212155 0.9418572447883374 1 
202 1 -1.717626757391574 6.514509184865258 13.759862021443046 1.0 1.0 1.0 -0.03826999570336437 0.6300781241300726 0.7755884163830666 1 
203 1 -9.45214481199187 -0.026604775678660732 11.407577319294095 1.0 1.0 1.0 -0.6330458620032327 0.11738865473862771 0.7651619206234973 1 
204 1 -10.872462687348762 1.6274650585568455 10.322862612293282 1.0 1.0 1.0 -0.8009619328941983 -0.026533581934410067 0.5981271350742415 1 
205 1 -13.265099374496295 -6.258000008580826 3.4640552865063126 1.0 1.0 1.0 -0.7689903238766663 -0.4940860227080353 0.40562595814076674 1 
206 1 -9.218054945235524 3.8107583081679994 11.445989472234704 1.0 1.0 1.0 -0.5277783101256255 0.42580600536532737 0.7349420361972512 1 
207 1 -5.443529681062074 3.24893997870205 13.7719877757378 1.0 1.0 1.0 -0.3953725505136397 0.32107108070035884 0.8605776634117593 1 
208 1 -13.944737193470022 -2.076655985044553 7.262387043013381 1.0 1.0 1.0 -0.8095509402862294 -0.3273038341350079 0.4873381918454626 1 
209 1 3.7536866818703296 -4.077622815678369 15.339751270197615 1.0 1.0 1.0 0.48101911999710556 -0.07168784867740867 0.8737739768150657 1 
210 1 6.406769716267805 -5.3721259462211925 13.118116543702813 1.0 1.0 1.0 0.6699647426668258 -0.3209021846470138 0.6694536368488467 1 
211 1 -10.709841626091546 2.520927442177192 10.377301176801772 1.0 1.0 1.0 -0.6566799391583278 0.19813466522480527 0.7276768769950498 1 
212 1 -15.160795308763419 -0.6157278992864436 5.65288851508497 1.0 1.0 1.0 -0.9087050565727917 0.0691080989401221 0.41167752344027936 1 
213 1 -8.615134269882574 -2.0563075249355864 12.279987144630622 1.0 1.0 1.0 -0.5411121947995071 -0.10374126894059955 0.8345272586409952 1 
214 1 -15.730407474339831 -2.6772468191022805 -0.7778184161847991 1.0 1.0 1.0 -0.9252036715525386 -0.3727115125089619 -0.07129917821394763 1 
215 1 -9.389747416500967 -5.225791428193165 11.170361436761258 1.0 1.0 1.0 -0.5299171729878719 -0.08493698040641856 0.8437851135004583 1 
216 1 -1.9529908542589003 -5.470067934545554 15.354655006723162 1.0 1.0 1.0 -0.21940100283062078 -0.21618919875487608 0.951381066513646 1 
217 1 11.010812873313352 -0.3530443439644383 10.613116167781545 1.0 1.0 1.0 0.7833678724545498 0.09440066182523468 0.614347763038159 1 
218 1 -2.6779328667634634 -9.003961940899176 13.125924346761368 1.0 1.0 1.0 -0.11735833985063406 -0.6150447398205269 0.7797097152919178 1 