atom-ID atom-type x y z diameter density q mux muy muz molecule-ID

    2125 atoms

    1 atom types

    -18.275000 18.275000 xlo xhi
    -18.459979 18.459979 ylo yhi
    -18.275000 18.275000 zlo zhi


    Atoms 

    1 1 -18.275000 -18.459979 0.000000 1.0 1.0 1.0 0.000000 0.000000 1.000000 1 
2 1 -17.425000 -18.459979 0.000000 1.0 1.0 1.0 0.000000 0.000000 1.000000 1 
3 1 -16.575000 -18.459979 0.000000 1.0 1.0 1.0 0.000000 0.000000 1.000000 1 
4 1 -15.725000 -18.459979 0.000000 1.0 1.0 1.0 0.000000 0.000000 1.000000 1 
5 1 -14.875000 -18.459979 0.000000 1.0 1.0 1.0 0.000000 0.000000 1.000000 1 
6 1 -14.025000 -18.459979 0.000000 1.0 1.0 1.0 0.000000 0.000000 1.000000 1 
7 1 -13.175000 -18.459979 0.000000 1.0 1.0 1.0 0.000000 0.000000 1.000000 1 
8 1 -12.325000 -18.459979 0.000000 1.0 1.0 1.0 0.000000 0.000000 1.000000 1 
9 1 -11.475000 -18.459979 0.000000 1.0 1.0 1.0 0.000000 0.000000 1.000000 1 
10 1 -10.625000 -18.459979 0.000000 1.0 1.0 1.0 0.000000 0.000000 1.000000 1 
11 1 -9.775000 -18.459979 0.000000 1.0 1.0 1.0 0.000000 0.000000 1.000000 1 
12 1 -8.925000 -18.459979 0.000000 1.0 1.0 1.0 0.000000 0.000000 1.000000 1 
13 1 -8.075000 -18.459979 0.000000 1.0 1.0 1.0 0.000000 0.000000 1.000000 1 
14 1 -7.225000 -18.459979 0.000000 1.0 1.0 1.0 0.000000 0.000000 1.000000 1 
15 1 -6.375000 -18.459979 0.000000 1.0 1.0 1.0 0.000000 0.000000 1.000000 1 
16 1 -5.525000 -18.459979 0.000000 1.0 1.0 1.0 0.000000 0.000000 1.000000 1 
17 1 -4.675000 -18.459979 0.000000 1.0 1.0 1.0 0.000000 0.000000 1.000000 1 
18 1 -3.825000 -18.459979 0.000000 1.0 1.0 1.0 0.000000 0.000000 1.000000 1 
19 1 -2.975000 -18.459979 0.000000 1.0 1.0 1.0 0.000000 0.000000 1.000000 1 
20 1 -2.125000 -18.459979 0.000000 1.0 1.0 1.0 0.000000 0.000000 1.000000 1 
21 1 -1.275000 -18.459979 0.000000 1.0 1.0 1.0 0.000000 0.000000 1.000000 1 
22 1 -0.425000 -18.459979 0.000000 1.0 1.0 1.0 0.000000 0.000000 1.000000 1 
23 1 0.425000 -18.459979 0.000000 1.0 1.0 1.0 0.000000 0.000000 1.000000 1 
24 1 1.275000 -18.459979 0.000000 1.0 1.0 1.0 0.000000 0.000000 1.000000 1 
25 1 2.125000 -18.459979 0.000000 1.0 1.0 1.0 0.000000 0.000000 1.000000 1 
26 1 2.975000 -18.459979 0.000000 1.0 1.0 1.0 0.000000 0.000000 1.000000 1 
27 1 3.825000 -18.459979 0.000000 1.0 1.0 1.0 0.000000 0.000000 1.000000 1 
28 1 4.675000 -18.459979 0.000000 1.0 1.0 1.0 0.000000 0.000000 1.000000 1 
29 1 5.525000 -18.459979 0.000000 1.0 1.0 1.0 0.000000 0.000000 1.000000 1 
30 1 6.375000 -18.459979 0.000000 1.0 1.0 1.0 0.000000 0.000000 1.000000 1 
31 1 7.225000 -18.459979 0.000000 1.0 1.0 1.0 0.000000 0.000000 1.000000 1 
32 1 8.075000 -18.459979 0.000000 1.0 1.0 1.0 0.000000 0.000000 1.000000 1 
33 1 8.925000 -18.459979 0.000000 1.0 1.0 1.0 0.000000 0.000000 1.000000 1 
34 1 9.775000 -18.459979 0.000000 1.0 1.0 1.0 0.000000 0.000000 1.000000 1 
35 1 10.625000 -18.459979 0.000000 1.0 1.0 1.0 0.000000 0.000000 1.000000 1 
36 1 11.475000 -18.459979 0.000000 1.0 1.0 1.0 0.000000 0.000000 1.000000 1 
37 1 12.325000 -18.459979 0.000000 1.0 1.0 1.0 0.000000 0.000000 1.000000 1 
38 1 13.175000 -18.459979 0.000000 1.0 1.0 1.0 0.000000 0.000000 1.000000 1 
39 1 14.025000 -18.459979 0.000000 1.0 1.0 1.0 0.000000 0.000000 1.000000 1 
40 1 14.875000 -18.459979 0.000000 1.0 1.0 1.0 0.000000 0.000000 1.000000 1 
41 1 15.725000 -18.459979 0.000000 1.0 1.0 1.0 0.000000 0.000000 1.000000 1 
42 1 16.575000 -18.459979 0.000000 1.0 1.0 1.0 0.000000 0.000000 1.000000 1 
43 1 17.425000 -18.459979 0.000000 1.0 1.0 1.0 0.000000 0.000000 1.000000 1 
44 1 -17.850000 -17.723857 0.000000 1.0 1.0 1.0 0.000000 0.000000 1.000000 1 
45 1 -17.000000 -17.723857 0.000000 1.0 1.0 1.0 0.000000 0.000000 1.000000 1 
46 1 -16.150000 -17.723857 0.000000 1.0 1.0 1.0 0.000000 0.000000 1.000000 1 
47 1 -15.300000 -17.723857 0.000000 1.0 1.0 1.0 0.000000 0.000000 1.000000 1 
48 1 -14.450000 -17.723857 0.000000 1.0 1.0 1.0 0.000000 0.000000 1.000000 1 
49 1 -13.600000 -17.723857 0.000000 1.0 1.0 1.0 0.000000 0.000000 1.000000 1 
50 1 -12.750000 -17.723857 0.000000 1.0 1.0 1.0 0.000000 0.000000 1.000000 1 
51 1 -11.900000 -17.723857 0.000000 1.0 1.0 1.0 0.000000 0.000000 1.000000 1 
52 1 -11.050000 -17.723857 0.000000 1.0 1.0 1.0 0.000000 0.000000 1.000000 1 
53 1 -10.200000 -17.723857 0.000000 1.0 1.0 1.0 0.000000 0.000000 1.000000 1 
54 1 -9.350000 -17.723857 0.000000 1.0 1.0 1.0 0.000000 0.000000 1.000000 1 
55 1 -8.500000 -17.723857 0.000000 1.0 1.0 1.0 0.000000 0.000000 1.000000 1 
56 1 -7.650000 -17.723857 0.000000 1.0 1.0 1.0 0.000000 0.000000 1.000000 1 
57 1 -6.800000 -17.723857 0.000000 1.0 1.0 1.0 0.000000 0.000000 1.000000 1 
58 1 -5.950000 -17.723857 0.000000 1.0 1.0 1.0 0.000000 0.000000 1.000000 1 
59 1 -5.100000 -17.723857 0.000000 1.0 1.0 1.0 0.000000 0.000000 1.000000 1 
60 1 -4.250000 -17.723857 0.000000 1.0 1.0 1.0 0.000000 0.000000 1.000000 1 
61 1 -3.400000 -17.723857 0.000000 1.0 1.0 1.0 0.000000 0.000000 1.000000 1 
62 1 -2.550000 -17.723857 0.000000 1.0 1.0 1.0 0.000000 0.000000 1.000000 1 
63 1 -1.700000 -17.723857 0.000000 1.0 1.0 1.0 0.000000 0.000000 1.000000 1 
64 1 -0.850000 -17.723857 0.000000 1.0 1.0 1.0 0.000000 0.000000 1.000000 1 
65 1 0.000000 -17.723857 0.000000 1.0 1.0 1.0 0.000000 0.000000 1.000000 1 
66 1 0.850000 -17.723857 0.000000 1.0 1.0 1.0 0.000000 0.000000 1.000000 1 
67 1 1.700000 -17.723857 0.000000 1.0 1.0 1.0 0.000000 0.000000 1.000000 1 
68 1 2.550000 -17.723857 0.000000 1.0 1.0 1.0 0.000000 0.000000 1.000000 1 
69 1 3.400000 -17.723857 0.000000 1.0 1.0 1.0 0.000000 0.000000 1.000000 1 
70 1 4.250000 -17.723857 0.000000 1.0 1.0 1.0 0.000000 0.000000 1.000000 1 
71 1 5.100000 -17.723857 0.000000 1.0 1.0 1.0 0.000000 0.000000 1.000000 1 
72 1 5.950000 -17.723857 0.000000 1.0 1.0 1.0 0.000000 0.000000 1.000000 1 
73 1 6.800000 -17.723857 0.000000 1.0 1.0 1.0 0.000000 0.000000 1.000000 1 
74 1 7.650000 -17.723857 0.000000 1.0 1.0 1.0 0.000000 0.000000 1.000000 1 
75 1 8.500000 -17.723857 0.000000 1.0 1.0 1.0 0.000000 0.000000 1.000000 1 
76 1 9.350000 -17.723857 0.000000 1.0 1.0 1.0 0.000000 0.000000 1.000000 1 
77 1 10.200000 -17.723857 0.000000 1.0 1.0 1.0 0.000000 0.000000 1.000000 1 
78 1 11.050000 -17.723857 0.000000 1.0 1.0 1.0 0.000000 0.000000 1.000000 1 
79 1 11.900000 -17.723857 0.000000 1.0 1.0 1.0 0.000000 0.000000 1.000000 1 
80 1 12.750000 -17.723857 0.000000 1.0 1.0 1.0 0.000000 0.000000 1.000000 1 
81 1 13.600000 -17.723857 0.000000 1.0 1.0 1.0 0.000000 0.000000 1.000000 1 
82 1 14.450000 -17.723857 0.000000 1.0 1.0 1.0 0.000000 0.000000 1.000000 1 
83 1 15.300000 -17.723857 0.000000 1.0 1.0 1.0 0.000000 0.000000 1.000000 1 
84 1 16.150000 -17.723857 0.000000 1.0 1.0 1.0 0.000000 0.000000 1.000000 1 
85 1 17.000000 -17.723857 0.000000 1.0 1.0 1.0 0.000000 0.000000 1.000000 1 
86 1 -18.275000 -16.987736 0.000000 1.0 1.0 1.0 0.000000 0.000000 1.000000 1 
87 1 -17.425000 -16.987736 0.000000 1.0 1.0 1.0 0.000000 0.000000 1.000000 1 
88 1 -16.575000 -16.987736 0.000000 1.0 1.0 1.0 0.000000 0.000000 1.000000 1 
89 1 -15.725000 -16.987736 0.000000 1.0 1.0 1.0 0.000000 0.000000 1.000000 1 
90 1 -14.875000 -16.987736 0.000000 1.0 1.0 1.0 0.000000 0.000000 1.000000 1 
91 1 -14.025000 -16.987736 0.000000 1.0 1.0 1.0 0.000000 0.000000 1.000000 1 
92 1 -13.175000 -16.987736 0.000000 1.0 1.0 1.0 0.000000 0.000000 1.000000 1 
93 1 -12.325000 -16.987736 0.000000 1.0 1.0 1.0 0.000000 0.000000 1.000000 1 
94 1 -11.475000 -16.987736 0.000000 1.0 1.0 1.0 0.000000 0.000000 1.000000 1 
95 1 -10.625000 -16.987736 0.000000 1.0 1.0 1.0 0.000000 0.000000 1.000000 1 
96 1 -9.775000 -16.987736 0.000000 1.0 1.0 1.0 0.000000 0.000000 1.000000 1 
97 1 -8.925000 -16.987736 0.000000 1.0 1.0 1.0 0.000000 0.000000 1.000000 1 
98 1 -8.075000 -16.987736 0.000000 1.0 1.0 1.0 0.000000 0.000000 1.000000 1 
99 1 -7.225000 -16.987736 0.000000 1.0 1.0 1.0 0.000000 0.000000 1.000000 1 
100 1 -6.375000 -16.987736 0.000000 1.0 1.0 1.0 0.000000 0.000000 1.000000 1 
101 1 -5.525000 -16.987736 0.000000 1.0 1.0 1.0 0.000000 0.000000 1.000000 1 
102 1 -4.675000 -16.987736 0.000000 1.0 1.0 1.0 0.000000 0.000000 1.000000 1 
103 1 -3.825000 -16.987736 0.000000 1.0 1.0 1.0 0.000000 0.000000 1.000000 1 
104 1 -2.975000 -16.987736 0.000000 1.0 1.0 1.0 0.000000 0.000000 1.000000 1 
105 1 -2.125000 -16.987736 0.000000 1.0 1.0 1.0 0.000000 0.000000 1.000000 1 
106 1 -1.275000 -16.987736 0.000000 1.0 1.0 1.0 0.000000 0.000000 1.000000 1 
107 1 -0.425000 -16.987736 0.000000 1.0 1.0 1.0 0.000000 0.000000 1.000000 1 
108 1 0.425000 -16.987736 0.000000 1.0 1.0 1.0 0.000000 0.000000 1.000000 1 
109 1 1.275000 -16.987736 0.000000 1.0 1.0 1.0 0.000000 0.000000 1.000000 1 
110 1 2.125000 -16.987736 0.000000 1.0 1.0 1.0 0.000000 0.000000 1.000000 1 
111 1 2.975000 -16.987736 0.000000 1.0 1.0 1.0 0.000000 0.000000 1.000000 1 
112 1 3.825000 -16.987736 0.000000 1.0 1.0 1.0 0.000000 0.000000 1.000000 1 
113 1 4.675000 -16.987736 0.000000 1.0 1.0 1.0 0.000000 0.000000 1.000000 1 
114 1 5.525000 -16.987736 0.000000 1.0 1.0 1.0 0.000000 0.000000 1.000000 1 
115 1 6.375000 -16.987736 0.000000 1.0 1.0 1.0 0.000000 0.000000 1.000000 1 
116 1 7.225000 -16.987736 0.000000 1.0 1.0 1.0 0.000000 0.000000 1.000000 1 
117 1 8.075000 -16.987736 0.000000 1.0 1.0 1.0 0.000000 0.000000 1.000000 1 
118 1 8.925000 -16.987736 0.000000 1.0 1.0 1.0 0.000000 0.000000 1.000000 1 
119 1 9.775000 -16.987736 0.000000 1.0 1.0 1.0 0.000000 0.000000 1.000000 1 
120 1 10.625000 -16.987736 0.000000 1.0 1.0 1.0 0.000000 0.000000 1.000000 1 
121 1 11.475000 -16.987736 0.000000 1.0 1.0 1.0 0.000000 0.000000 1.000000 1 
122 1 12.325000 -16.987736 0.000000 1.0 1.0 1.0 0.000000 0.000000 1.000000 1 
123 1 13.175000 -16.987736 0.000000 1.0 1.0 1.0 0.000000 0.000000 1.000000 1 
124 1 14.025000 -16.987736 0.000000 1.0 1.0 1.0 0.000000 0.000000 1.000000 1 
125 1 14.875000 -16.987736 0.000000 1.0 1.0 1.0 0.000000 0.000000 1.000000 1 
126 1 15.725000 -16.987736 0.000000 1.0 1.0 1.0 0.000000 0.000000 1.000000 1 
127 1 16.575000 -16.987736 0.000000 1.0 1.0 1.0 0.000000 0.000000 1.000000 1 
128 1 17.425000 -16.987736 0.000000 1.0 1.0 1.0 0.000000 0.000000 1.000000 1 
129 1 -17.850000 -16.251614 0.000000 1.0 1.0 1.0 0.000000 0.000000 1.000000 1 
130 1 -17.000000 -16.251614 0.000000 1.0 1.0 1.0 0.000000 0.000000 1.000000 1 
131 1 -16.150000 -16.251614 0.000000 1.0 1.0 1.0 0.000000 0.000000 1.000000 1 
132 1 -15.300000 -16.251614 0.000000 1.0 1.0 1.0 0.000000 0.000000 1.000000 1 
133 1 -14.450000 -16.251614 0.000000 1.0 1.0 1.0 0.000000 0.000000 1.000000 1 
134 1 -13.600000 -16.251614 0.000000 1.0 1.0 1.0 0.000000 0.000000 1.000000 1 
135 1 -12.750000 -16.251614 0.000000 1.0 1.0 1.0 0.000000 0.000000 1.000000 1 
136 1 -11.900000 -16.251614 0.000000 1.0 1.0 1.0 0.000000 0.000000 1.000000 1 
137 1 -11.050000 -16.251614 0.000000 1.0 1.0 1.0 0.000000 0.000000 1.000000 1 
138 1 -10.200000 -16.251614 0.000000 1.0 1.0 1.0 0.000000 0.000000 1.000000 1 
139 1 -9.350000 -16.251614 0.000000 1.0 1.0 1.0 0.000000 0.000000 1.000000 1 
140 1 -8.500000 -16.251614 0.000000 1.0 1.0 1.0 0.000000 0.000000 1.000000 1 
141 1 -7.650000 -16.251614 0.000000 1.0 1.0 1.0 0.000000 0.000000 1.000000 1 
142 1 -6.800000 -16.251614 0.000000 1.0 1.0 1.0 0.000000 0.000000 1.000000 1 
143 1 -5.950000 -16.251614 0.000000 1.0 1.0 1.0 0.000000 0.000000 1.000000 1 
144 1 -5.100000 -16.251614 0.000000 1.0 1.0 1.0 0.000000 0.000000 1.000000 1 
145 1 -4.250000 -16.251614 0.000000 1.0 1.0 1.0 0.000000 0.000000 1.000000 1 
146 1 -3.400000 -16.251614 0.000000 1.0 1.0 1.0 0.000000 0.000000 1.000000 1 
147 1 -2.550000 -16.251614 0.000000 1.0 1.0 1.0 0.000000 0.000000 1.000000 1 
148 1 -1.700000 -16.251614 0.000000 1.0 1.0 1.0 0.000000 0.000000 1.000000 1 
149 1 -0.850000 -16.251614 0.000000 1.0 1.0 1.0 0.000000 0.000000 1.000000 1 
150 1 0.000000 -16.251614 0.000000 1.0 1.0 1.0 0.000000 0.000000 1.000000 1 
151 1 0.850000 -16.251614 0.000000 1.0 1.0 1.0 0.000000 0.000000 1.000000 1 
152 1 1.700000 -16.251614 0.000000 1.0 1.0 1.0 0.000000 0.000000 1.000000 1 
153 1 2.550000 -16.251614 0.000000 1.0 1.0 1.0 0.000000 0.000000 1.000000 1 
154 1 3.400000 -16.251614 0.000000 1.0 1.0 1.0 0.000000 0.000000 1.000000 1 
155 1 4.250000 -16.251614 0.000000 1.0 1.0 1.0 0.000000 0.000000 1.000000 1 
156 1 5.100000 -16.251614 0.000000 1.0 1.0 1.0 0.000000 0.000000 1.000000 1 
157 1 5.950000 -16.251614 0.000000 1.0 1.0 1.0 0.000000 0.000000 1.000000 1 
158 1 6.800000 -16.251614 0.000000 1.0 1.0 1.0 0.000000 0.000000 1.000000 1 
159 1 7.650000 -16.251614 0.000000 1.0 1.0 1.0 0.000000 0.000000 1.000000 1 
160 1 8.500000 -16.251614 0.000000 1.0 1.0 1.0 0.000000 0.000000 1.000000 1 
161 1 9.350000 -16.251614 0.000000 1.0 1.0 1.0 0.000000 0.000000 1.000000 1 
162 1 10.200000 -16.251614 0.000000 1.0 1.0 1.0 0.000000 0.000000 1.000000 1 
163 1 11.050000 -16.251614 0.000000 1.0 1.0 1.0 0.000000 0.000000 1.000000 1 
164 1 11.900000 -16.251614 0.000000 1.0 1.0 1.0 0.000000 0.000000 1.000000 1 
165 1 12.750000 -16.251614 0.000000 1.0 1.0 1.0 0.000000 0.000000 1.000000 1 
166 1 13.600000 -16.251614 0.000000 1.0 1.0 1.0 0.000000 0.000000 1.000000 1 
167 1 14.450000 -16.251614 0.000000 1.0 1.0 1.0 0.000000 0.000000 1.000000 1 
168 1 15.300000 -16.251614 0.000000 1.0 1.0 1.0 0.000000 0.000000 1.000000 1 
169 1 16.150000 -16.251614 0.000000 1.0 1.0 1.0 0.000000 0.000000 1.000000 1 
170 1 17.000000 -16.251614 0.000000 1.0 1.0 1.0 0.000000 0.000000 1.000000 1 
171 1 -18.275000 -15.515493 0.000000 1.0 1.0 1.0 0.000000 0.000000 1.000000 1 
172 1 -17.425000 -15.515493 0.000000 1.0 1.0 1.0 0.000000 0.000000 1.000000 1 
173 1 -16.575000 -15.515493 0.000000 1.0 1.0 1.0 0.000000 0.000000 1.000000 1 
174 1 -15.725000 -15.515493 0.000000 1.0 1.0 1.0 0.000000 0.000000 1.000000 1 
175 1 -14.875000 -15.515493 0.000000 1.0 1.0 1.0 0.000000 0.000000 1.000000 1 
176 1 -14.025000 -15.515493 0.000000 1.0 1.0 1.0 0.000000 0.000000 1.000000 1 
177 1 -13.175000 -15.515493 0.000000 1.0 1.0 1.0 0.000000 0.000000 1.000000 1 
178 1 -12.325000 -15.515493 0.000000 1.0 1.0 1.0 0.000000 0.000000 1.000000 1 
179 1 -11.475000 -15.515493 0.000000 1.0 1.0 1.0 0.000000 0.000000 1.000000 1 
180 1 -10.625000 -15.515493 0.000000 1.0 1.0 1.0 0.000000 0.000000 1.000000 1 
181 1 -9.775000 -15.515493 0.000000 1.0 1.0 1.0 0.000000 0.000000 1.000000 1 
182 1 -8.925000 -15.515493 0.000000 1.0 1.0 1.0 0.000000 0.000000 1.000000 1 
183 1 -8.075000 -15.515493 0.000000 1.0 1.0 1.0 0.000000 0.000000 1.000000 1 
184 1 -7.225000 -15.515493 0.000000 1.0 1.0 1.0 0.000000 0.000000 1.000000 1 
185 1 -6.375000 -15.515493 0.000000 1.0 1.0 1.0 0.000000 0.000000 1.000000 1 
186 1 -5.525000 -15.515493 0.000000 1.0 1.0 1.0 0.000000 0.000000 1.000000 1 
187 1 -4.675000 -15.515493 0.000000 1.0 1.0 1.0 0.000000 0.000000 1.000000 1 
188 1 -3.825000 -15.515493 0.000000 1.0 1.0 1.0 0.000000 0.000000 1.000000 1 
189 1 -2.975000 -15.515493 0.000000 1.0 1.0 1.0 0.000000 0.000000 1.000000 1 
190 1 -2.125000 -15.515493 0.000000 1.0 1.0 1.0 0.000000 0.000000 1.000000 1 
191 1 -1.275000 -15.515493 0.000000 1.0 1.0 1.0 0.000000 0.000000 1.000000 1 
192 1 -0.425000 -15.515493 0.000000 1.0 1.0 1.0 0.000000 0.000000 1.000000 1 
193 1 0.425000 -15.515493 0.000000 1.0 1.0 1.0 0.000000 0.000000 1.000000 1 
194 1 1.275000 -15.515493 0.000000 1.0 1.0 1.0 0.000000 0.000000 1.000000 1 
195 1 2.125000 -15.515493 0.000000 1.0 1.0 1.0 0.000000 0.000000 1.000000 1 
196 1 2.975000 -15.515493 0.000000 1.0 1.0 1.0 0.000000 0.000000 1.000000 1 
197 1 3.825000 -15.515493 0.000000 1.0 1.0 1.0 0.000000 0.000000 1.000000 1 
198 1 4.675000 -15.515493 0.000000 1.0 1.0 1.0 0.000000 0.000000 1.000000 1 
199 1 5.525000 -15.515493 0.000000 1.0 1.0 1.0 0.000000 0.000000 1.000000 1 
200 1 6.375000 -15.515493 0.000000 1.0 1.0 1.0 0.000000 0.000000 1.000000 1 
201 1 7.225000 -15.515493 0.000000 1.0 1.0 1.0 0.000000 0.000000 1.000000 1 
202 1 8.075000 -15.515493 0.000000 1.0 1.0 1.0 0.000000 0.000000 1.000000 1 
203 1 8.925000 -15.515493 0.000000 1.0 1.0 1.0 0.000000 0.000000 1.000000 1 
204 1 9.775000 -15.515493 0.000000 1.0 1.0 1.0 0.000000 0.000000 1.000000 1 
205 1 10.625000 -15.515493 0.000000 1.0 1.0 1.0 0.000000 0.000000 1.000000 1 
206 1 11.475000 -15.515493 0.000000 1.0 1.0 1.0 0.000000 0.000000 1.000000 1 
207 1 12.325000 -15.515493 0.000000 1.0 1.0 1.0 0.000000 0.000000 1.000000 1 
208 1 13.175000 -15.515493 0.000000 1.0 1.0 1.0 0.000000 0.000000 1.000000 1 
209 1 14.025000 -15.515493 0.000000 1.0 1.0 1.0 0.000000 0.000000 1.000000 1 
210 1 14.875000 -15.515493 0.000000 1.0 1.0 1.0 0.000000 0.000000 1.000000 1 
211 1 15.725000 -15.515493 0.000000 1.0 1.0 1.0 0.000000 0.000000 1.000000 1 
212 1 16.575000 -15.515493 0.000000 1.0 1.0 1.0 0.000000 0.000000 1.000000 1 
213 1 17.425000 -15.515493 0.000000 1.0 1.0 1.0 0.000000 0.000000 1.000000 1 
214 1 -17.850000 -14.779371 0.000000 1.0 1.0 1.0 0.000000 0.000000 1.000000 1 
215 1 -17.000000 -14.779371 0.000000 1.0 1.0 1.0 0.000000 0.000000 1.000000 1 
216 1 -16.150000 -14.779371 0.000000 1.0 1.0 1.0 0.000000 0.000000 1.000000 1 
217 1 -15.300000 -14.779371 0.000000 1.0 1.0 1.0 0.000000 0.000000 1.000000 1 
218 1 -14.450000 -14.779371 0.000000 1.0 1.0 1.0 0.000000 0.000000 1.000000 1 
219 1 -13.600000 -14.779371 0.000000 1.0 1.0 1.0 0.000000 0.000000 1.000000 1 
220 1 -12.750000 -14.779371 0.000000 1.0 1.0 1.0 0.000000 0.000000 1.000000 1 
221 1 -11.900000 -14.779371 0.000000 1.0 1.0 1.0 0.000000 0.000000 1.000000 1 
222 1 -11.050000 -14.779371 0.000000 1.0 1.0 1.0 0.000000 0.000000 1.000000 1 
223 1 -10.200000 -14.779371 0.000000 1.0 1.0 1.0 0.000000 0.000000 1.000000 1 
224 1 -9.350000 -14.779371 0.000000 1.0 1.0 1.0 0.000000 0.000000 1.000000 1 
225 1 -8.500000 -14.779371 0.000000 1.0 1.0 1.0 0.000000 0.000000 1.000000 1 
226 1 -7.650000 -14.779371 0.000000 1.0 1.0 1.0 0.000000 0.000000 1.000000 1 
227 1 -6.800000 -14.779371 0.000000 1.0 1.0 1.0 0.000000 0.000000 1.000000 1 
228 1 -5.950000 -14.779371 0.000000 1.0 1.0 1.0 0.000000 0.000000 1.000000 1 
229 1 -5.100000 -14.779371 0.000000 1.0 1.0 1.0 0.000000 0.000000 1.000000 1 
230 1 -4.250000 -14.779371 0.000000 1.0 1.0 1.0 0.000000 0.000000 1.000000 1 
231 1 -3.400000 -14.779371 0.000000 1.0 1.0 1.0 0.000000 0.000000 1.000000 1 
232 1 -2.550000 -14.779371 0.000000 1.0 1.0 1.0 0.000000 0.000000 1.000000 1 
233 1 -1.700000 -14.779371 0.000000 1.0 1.0 1.0 0.000000 0.000000 1.000000 1 
234 1 -0.850000 -14.779371 0.000000 1.0 1.0 1.0 0.000000 0.000000 1.000000 1 
235 1 0.000000 -14.779371 0.000000 1.0 1.0 1.0 0.000000 0.000000 1.000000 1 
236 1 0.850000 -14.779371 0.000000 1.0 1.0 1.0 0.000000 0.000000 1.000000 1 
237 1 1.700000 -14.779371 0.000000 1.0 1.0 1.0 0.000000 0.000000 1.000000 1 
238 1 2.550000 -14.779371 0.000000 1.0 1.0 1.0 0.000000 0.000000 1.000000 1 
239 1 3.400000 -14.779371 0.000000 1.0 1.0 1.0 0.000000 0.000000 1.000000 1 
240 1 4.250000 -14.779371 0.000000 1.0 1.0 1.0 0.000000 0.000000 1.000000 1 
241 1 5.100000 -14.779371 0.000000 1.0 1.0 1.0 0.000000 0.000000 1.000000 1 
242 1 5.950000 -14.779371 0.000000 1.0 1.0 1.0 0.000000 0.000000 1.000000 1 
243 1 6.800000 -14.779371 0.000000 1.0 1.0 1.0 0.000000 0.000000 1.000000 1 
244 1 7.650000 -14.779371 0.000000 1.0 1.0 1.0 0.000000 0.000000 1.000000 1 
245 1 8.500000 -14.779371 0.000000 1.0 1.0 1.0 0.000000 0.000000 1.000000 1 
246 1 9.350000 -14.779371 0.000000 1.0 1.0 1.0 0.000000 0.000000 1.000000 1 
247 1 10.200000 -14.779371 0.000000 1.0 1.0 1.0 0.000000 0.000000 1.000000 1 
248 1 11.050000 -14.779371 0.000000 1.0 1.0 1.0 0.000000 0.000000 1.000000 1 
249 1 11.900000 -14.779371 0.000000 1.0 1.0 1.0 0.000000 0.000000 1.000000 1 
250 1 12.750000 -14.779371 0.000000 1.0 1.0 1.0 0.000000 0.000000 1.000000 1 
251 1 13.600000 -14.779371 0.000000 1.0 1.0 1.0 0.000000 0.000000 1.000000 1 
252 1 14.450000 -14.779371 0.000000 1.0 1.0 1.0 0.000000 0.000000 1.000000 1 
253 1 15.300000 -14.779371 0.000000 1.0 1.0 1.0 0.000000 0.000000 1.000000 1 
254 1 16.150000 -14.779371 0.000000 1.0 1.0 1.0 0.000000 0.000000 1.000000 1 
255 1 17.000000 -14.779371 0.000000 1.0 1.0 1.0 0.000000 0.000000 1.000000 1 
256 1 -18.275000 -14.043249 0.000000 1.0 1.0 1.0 0.000000 0.000000 1.000000 1 
257 1 -17.425000 -14.043249 0.000000 1.0 1.0 1.0 0.000000 0.000000 1.000000 1 
258 1 -16.575000 -14.043249 0.000000 1.0 1.0 1.0 0.000000 0.000000 1.000000 1 
259 1 -15.725000 -14.043249 0.000000 1.0 1.0 1.0 0.000000 0.000000 1.000000 1 
260 1 -14.875000 -14.043249 0.000000 1.0 1.0 1.0 0.000000 0.000000 1.000000 1 
261 1 -14.025000 -14.043249 0.000000 1.0 1.0 1.0 0.000000 0.000000 1.000000 1 
262 1 -13.175000 -14.043249 0.000000 1.0 1.0 1.0 0.000000 0.000000 1.000000 1 
263 1 -12.325000 -14.043249 0.000000 1.0 1.0 1.0 0.000000 0.000000 1.000000 1 
264 1 -11.475000 -14.043249 0.000000 1.0 1.0 1.0 0.000000 0.000000 1.000000 1 
265 1 -10.625000 -14.043249 0.000000 1.0 1.0 1.0 0.000000 0.000000 1.000000 1 
266 1 -9.775000 -14.043249 0.000000 1.0 1.0 1.0 0.000000 0.000000 1.000000 1 
267 1 -8.925000 -14.043249 0.000000 1.0 1.0 1.0 0.000000 0.000000 1.000000 1 
268 1 -8.075000 -14.043249 0.000000 1.0 1.0 1.0 0.000000 0.000000 1.000000 1 
269 1 -7.225000 -14.043249 0.000000 1.0 1.0 1.0 0.000000 0.000000 1.000000 1 
270 1 -6.375000 -14.043249 0.000000 1.0 1.0 1.0 0.000000 0.000000 1.000000 1 
271 1 -5.525000 -14.043249 0.000000 1.0 1.0 1.0 0.000000 0.000000 1.000000 1 
272 1 -4.675000 -14.043249 0.000000 1.0 1.0 1.0 0.000000 0.000000 1.000000 1 
273 1 -3.825000 -14.043249 0.000000 1.0 1.0 1.0 0.000000 0.000000 1.000000 1 
274 1 -2.975000 -14.043249 0.000000 1.0 1.0 1.0 0.000000 0.000000 1.000000 1 
275 1 -2.125000 -14.043249 0.000000 1.0 1.0 1.0 0.000000 0.000000 1.000000 1 
276 1 -1.275000 -14.043249 0.000000 1.0 1.0 1.0 0.000000 0.000000 1.000000 1 
277 1 -0.425000 -14.043249 0.000000 1.0 1.0 1.0 0.000000 0.000000 1.000000 1 
278 1 0.425000 -14.043249 0.000000 1.0 1.0 1.0 0.000000 0.000000 1.000000 1 
279 1 1.275000 -14.043249 0.000000 1.0 1.0 1.0 0.000000 0.000000 1.000000 1 
280 1 2.125000 -14.043249 0.000000 1.0 1.0 1.0 0.000000 0.000000 1.000000 1 
281 1 2.975000 -14.043249 0.000000 1.0 1.0 1.0 0.000000 0.000000 1.000000 1 
282 1 3.825000 -14.043249 0.000000 1.0 1.0 1.0 0.000000 0.000000 1.000000 1 
283 1 4.675000 -14.043249 0.000000 1.0 1.0 1.0 0.000000 0.000000 1.000000 1 
284 1 5.525000 -14.043249 0.000000 1.0 1.0 1.0 0.000000 0.000000 1.000000 1 
285 1 6.375000 -14.043249 0.000000 1.0 1.0 1.0 0.000000 0.000000 1.000000 1 
286 1 7.225000 -14.043249 0.000000 1.0 1.0 1.0 0.000000 0.000000 1.000000 1 
287 1 8.075000 -14.043249 0.000000 1.0 1.0 1.0 0.000000 0.000000 1.000000 1 
288 1 8.925000 -14.043249 0.000000 1.0 1.0 1.0 0.000000 0.000000 1.000000 1 
289 1 9.775000 -14.043249 0.000000 1.0 1.0 1.0 0.000000 0.000000 1.000000 1 
290 1 10.625000 -14.043249 0.000000 1.0 1.0 1.0 0.000000 0.000000 1.000000 1 
291 1 11.475000 -14.043249 0.000000 1.0 1.0 1.0 0.000000 0.000000 1.000000 1 
292 1 12.325000 -14.043249 0.000000 1.0 1.0 1.0 0.000000 0.000000 1.000000 1 
293 1 13.175000 -14.043249 0.000000 1.0 1.0 1.0 0.000000 0.000000 1.000000 1 
294 1 14.025000 -14.043249 0.000000 1.0 1.0 1.0 0.000000 0.000000 1.000000 1 
295 1 14.875000 -14.043249 0.000000 1.0 1.0 1.0 0.000000 0.000000 1.000000 1 
296 1 15.725000 -14.043249 0.000000 1.0 1.0 1.0 0.000000 0.000000 1.000000 1 
297 1 16.575000 -14.043249 0.000000 1.0 1.0 1.0 0.000000 0.000000 1.000000 1 
298 1 17.425000 -14.043249 0.000000 1.0 1.0 1.0 0.000000 0.000000 1.000000 1 
299 1 -17.850000 -13.307128 0.000000 1.0 1.0 1.0 0.000000 0.000000 1.000000 1 
300 1 -17.000000 -13.307128 0.000000 1.0 1.0 1.0 0.000000 0.000000 1.000000 1 
301 1 -16.150000 -13.307128 0.000000 1.0 1.0 1.0 0.000000 0.000000 1.000000 1 
302 1 -15.300000 -13.307128 0.000000 1.0 1.0 1.0 0.000000 0.000000 1.000000 1 
303 1 -14.450000 -13.307128 0.000000 1.0 1.0 1.0 0.000000 0.000000 1.000000 1 
304 1 -13.600000 -13.307128 0.000000 1.0 1.0 1.0 0.000000 0.000000 1.000000 1 
305 1 -12.750000 -13.307128 0.000000 1.0 1.0 1.0 0.000000 0.000000 1.000000 1 
306 1 -11.900000 -13.307128 0.000000 1.0 1.0 1.0 0.000000 0.000000 1.000000 1 
307 1 -11.050000 -13.307128 0.000000 1.0 1.0 1.0 0.000000 0.000000 1.000000 1 
308 1 -10.200000 -13.307128 0.000000 1.0 1.0 1.0 0.000000 0.000000 1.000000 1 
309 1 -9.350000 -13.307128 0.000000 1.0 1.0 1.0 0.000000 0.000000 1.000000 1 
310 1 -8.500000 -13.307128 0.000000 1.0 1.0 1.0 0.000000 0.000000 1.000000 1 
311 1 -7.650000 -13.307128 0.000000 1.0 1.0 1.0 0.000000 0.000000 1.000000 1 
312 1 -6.800000 -13.307128 0.000000 1.0 1.0 1.0 0.000000 0.000000 1.000000 1 
313 1 -5.950000 -13.307128 0.000000 1.0 1.0 1.0 0.000000 0.000000 1.000000 1 
314 1 -5.100000 -13.307128 0.000000 1.0 1.0 1.0 0.000000 0.000000 1.000000 1 
315 1 -4.250000 -13.307128 0.000000 1.0 1.0 1.0 0.000000 0.000000 1.000000 1 
316 1 -3.400000 -13.307128 0.000000 1.0 1.0 1.0 0.000000 0.000000 1.000000 1 
317 1 -2.550000 -13.307128 0.000000 1.0 1.0 1.0 0.000000 0.000000 1.000000 1 
318 1 -1.700000 -13.307128 0.000000 1.0 1.0 1.0 0.000000 0.000000 1.000000 1 
319 1 -0.850000 -13.307128 0.000000 1.0 1.0 1.0 0.000000 0.000000 1.000000 1 
320 1 0.000000 -13.307128 0.000000 1.0 1.0 1.0 0.000000 0.000000 1.000000 1 
321 1 0.850000 -13.307128 0.000000 1.0 1.0 1.0 0.000000 0.000000 1.000000 1 
322 1 1.700000 -13.307128 0.000000 1.0 1.0 1.0 0.000000 0.000000 1.000000 1 
323 1 2.550000 -13.307128 0.000000 1.0 1.0 1.0 0.000000 0.000000 1.000000 1 
324 1 3.400000 -13.307128 0.000000 1.0 1.0 1.0 0.000000 0.000000 1.000000 1 
325 1 4.250000 -13.307128 0.000000 1.0 1.0 1.0 0.000000 0.000000 1.000000 1 
326 1 5.100000 -13.307128 0.000000 1.0 1.0 1.0 0.000000 0.000000 1.000000 1 
327 1 5.950000 -13.307128 0.000000 1.0 1.0 1.0 0.000000 0.000000 1.000000 1 
328 1 6.800000 -13.307128 0.000000 1.0 1.0 1.0 0.000000 0.000000 1.000000 1 
329 1 7.650000 -13.307128 0.000000 1.0 1.0 1.0 0.000000 0.000000 1.000000 1 
330 1 8.500000 -13.307128 0.000000 1.0 1.0 1.0 0.000000 0.000000 1.000000 1 
331 1 9.350000 -13.307128 0.000000 1.0 1.0 1.0 0.000000 0.000000 1.000000 1 
332 1 10.200000 -13.307128 0.000000 1.0 1.0 1.0 0.000000 0.000000 1.000000 1 
333 1 11.050000 -13.307128 0.000000 1.0 1.0 1.0 0.000000 0.000000 1.000000 1 
334 1 11.900000 -13.307128 0.000000 1.0 1.0 1.0 0.000000 0.000000 1.000000 1 
335 1 12.750000 -13.307128 0.000000 1.0 1.0 1.0 0.000000 0.000000 1.000000 1 
336 1 13.600000 -13.307128 0.000000 1.0 1.0 1.0 0.000000 0.000000 1.000000 1 
337 1 14.450000 -13.307128 0.000000 1.0 1.0 1.0 0.000000 0.000000 1.000000 1 
338 1 15.300000 -13.307128 0.000000 1.0 1.0 1.0 0.000000 0.000000 1.000000 1 
339 1 16.150000 -13.307128 0.000000 1.0 1.0 1.0 0.000000 0.000000 1.000000 1 
340 1 17.000000 -13.307128 0.000000 1.0 1.0 1.0 0.000000 0.000000 1.000000 1 
341 1 -18.275000 -12.571006 0.000000 1.0 1.0 1.0 0.000000 0.000000 1.000000 1 
342 1 -17.425000 -12.571006 0.000000 1.0 1.0 1.0 0.000000 0.000000 1.000000 1 
343 1 -16.575000 -12.571006 0.000000 1.0 1.0 1.0 0.000000 0.000000 1.000000 1 
344 1 -15.725000 -12.571006 0.000000 1.0 1.0 1.0 0.000000 0.000000 1.000000 1 
345 1 -14.875000 -12.571006 0.000000 1.0 1.0 1.0 0.000000 0.000000 1.000000 1 
346 1 -14.025000 -12.571006 0.000000 1.0 1.0 1.0 0.000000 0.000000 1.000000 1 
347 1 -13.175000 -12.571006 0.000000 1.0 1.0 1.0 0.000000 0.000000 1.000000 1 
348 1 -12.325000 -12.571006 0.000000 1.0 1.0 1.0 0.000000 0.000000 1.000000 1 
349 1 -11.475000 -12.571006 0.000000 1.0 1.0 1.0 0.000000 0.000000 1.000000 1 
350 1 -10.625000 -12.571006 0.000000 1.0 1.0 1.0 0.000000 0.000000 1.000000 1 
351 1 -9.775000 -12.571006 0.000000 1.0 1.0 1.0 0.000000 0.000000 1.000000 1 
352 1 -8.925000 -12.571006 0.000000 1.0 1.0 1.0 0.000000 0.000000 1.000000 1 
353 1 -8.075000 -12.571006 0.000000 1.0 1.0 1.0 0.000000 0.000000 1.000000 1 
354 1 -7.225000 -12.571006 0.000000 1.0 1.0 1.0 0.000000 0.000000 1.000000 1 
355 1 -6.375000 -12.571006 0.000000 1.0 1.0 1.0 0.000000 0.000000 1.000000 1 
356 1 -5.525000 -12.571006 0.000000 1.0 1.0 1.0 0.000000 0.000000 1.000000 1 
357 1 -4.675000 -12.571006 0.000000 1.0 1.0 1.0 0.000000 0.000000 1.000000 1 
358 1 -3.825000 -12.571006 0.000000 1.0 1.0 1.0 0.000000 0.000000 1.000000 1 
359 1 -2.975000 -12.571006 0.000000 1.0 1.0 1.0 0.000000 0.000000 1.000000 1 
360 1 -2.125000 -12.571006 0.000000 1.0 1.0 1.0 0.000000 0.000000 1.000000 1 
361 1 -1.275000 -12.571006 0.000000 1.0 1.0 1.0 0.000000 0.000000 1.000000 1 
362 1 -0.425000 -12.571006 0.000000 1.0 1.0 1.0 0.000000 0.000000 1.000000 1 
363 1 0.425000 -12.571006 0.000000 1.0 1.0 1.0 0.000000 0.000000 1.000000 1 
364 1 1.275000 -12.571006 0.000000 1.0 1.0 1.0 0.000000 0.000000 1.000000 1 
365 1 2.125000 -12.571006 0.000000 1.0 1.0 1.0 0.000000 0.000000 1.000000 1 
366 1 2.975000 -12.571006 0.000000 1.0 1.0 1.0 0.000000 0.000000 1.000000 1 
367 1 3.825000 -12.571006 0.000000 1.0 1.0 1.0 0.000000 0.000000 1.000000 1 
368 1 4.675000 -12.571006 0.000000 1.0 1.0 1.0 0.000000 0.000000 1.000000 1 
369 1 5.525000 -12.571006 0.000000 1.0 1.0 1.0 0.000000 0.000000 1.000000 1 
370 1 6.375000 -12.571006 0.000000 1.0 1.0 1.0 0.000000 0.000000 1.000000 1 
371 1 7.225000 -12.571006 0.000000 1.0 1.0 1.0 0.000000 0.000000 1.000000 1 
372 1 8.075000 -12.571006 0.000000 1.0 1.0 1.0 0.000000 0.000000 1.000000 1 
373 1 8.925000 -12.571006 0.000000 1.0 1.0 1.0 0.000000 0.000000 1.000000 1 
374 1 9.775000 -12.571006 0.000000 1.0 1.0 1.0 0.000000 0.000000 1.000000 1 
375 1 10.625000 -12.571006 0.000000 1.0 1.0 1.0 0.000000 0.000000 1.000000 1 
376 1 11.475000 -12.571006 0.000000 1.0 1.0 1.0 0.000000 0.000000 1.000000 1 
377 1 12.325000 -12.571006 0.000000 1.0 1.0 1.0 0.000000 0.000000 1.000000 1 
378 1 13.175000 -12.571006 0.000000 1.0 1.0 1.0 0.000000 0.000000 1.000000 1 
379 1 14.025000 -12.571006 0.000000 1.0 1.0 1.0 0.000000 0.000000 1.000000 1 
380 1 14.875000 -12.571006 0.000000 1.0 1.0 1.0 0.000000 0.000000 1.000000 1 
381 1 15.725000 -12.571006 0.000000 1.0 1.0 1.0 0.000000 0.000000 1.000000 1 
382 1 16.575000 -12.571006 0.000000 1.0 1.0 1.0 0.000000 0.000000 1.000000 1 
383 1 17.425000 -12.571006 0.000000 1.0 1.0 1.0 0.000000 0.000000 1.000000 1 