    Radius equal to 16.282906

    4500 atoms

    1 atom types

    -32.545466 32.545466 xlo xhi
    -32.545466 32.545466 ylo yhi
    -32.545466 32.545466 zlo zhi


    Atoms 

    1 1 -0.319197 8.181946 14.074335 1.0 1.0 1.0 -0.022452221972162487 0.4990599089520744 0.8662765753529642 1
2 1 -1.309559 7.864606 14.196037 1.0 1.0 1.0 -0.08319758307740785 0.48016646737478796 0.8732229530760711 1
3 1 -0.649940 7.779341 14.288803 1.0 1.0 1.0 -0.03796549803062581 0.4801825202356093 0.876346602788797 1
4 1 -0.330743 7.259664 14.569912 1.0 1.0 1.0 -0.02243917724100747 0.4426157074656331 0.8964305990033159 1
5 1 -2.361266 7.489819 14.261237 1.0 1.0 1.0 -0.14763263585623193 0.4578145034444932 0.8767043317253618 1
6 1 -1.673475 7.424787 14.392420 1.0 1.0 1.0 -0.10085175646896438 0.4578276211417932 0.883302209063677 1
7 1 -1.355412 6.885884 14.690109 1.0 1.0 1.0 -0.08532424474540794 0.42026312887920314 0.903381799552818 1
8 1 -0.672299 6.806027 14.774836 1.0 1.0 1.0 -0.04009587187239847 0.42027841944455063 0.9065088919629982 1
9 1 -0.341556 6.241570 15.032697 1.0 1.0 1.0 -0.022351458900813338 0.3803864779354558 0.924557483171741 1
10 1 -3.463935 7.054028 14.256964 1.0 1.0 1.0 -0.21510783796823774 0.43175911246787746 0.8759638616093595 1
11 1 -2.755364 7.010760 14.432148 1.0 1.0 1.0 -0.16739666640688253 0.43176835220154136 0.8863150941471258 1
12 1 -2.441564 6.452778 14.744842 1.0 1.0 1.0 -0.15191524036887022 0.3943220604754334 0.9063287882253752 1
13 1 -1.729403 6.392934 14.871619 1.0 1.0 1.0 -0.10500319504445987 0.3943343831205237 0.9129483683754581 1
14 1 -1.397529 5.807529 15.143628 1.0 1.0 1.0 -0.08720675495258116 0.3543300171276392 0.931045230293871 1
15 1 -0.692796 5.736023 15.219979 1.0 1.0 1.0 -0.042121197787807804 0.3543438546383821 0.9341660652030417 1
16 1 -0.351239 5.130276 15.445908 1.0 1.0 1.0 -0.022209493786484617 0.3125413793899781 0.9496444727132137 1
17 1 -4.602426 6.556093 14.171173 1.0 1.0 1.0 -0.284687089734065 0.4018922481631177 0.8703079235564521 1
18 1 -3.882871 6.534985 14.394788 1.0 1.0 1.0 -0.23682816814542612 0.4018969466962992 0.8845288367312136 1
19 1 -3.576574 5.958505 14.719903 1.0 1.0 1.0 -0.2214243797603972 0.3646465497559229 0.9044358118732498 1
20 1 -2.843838 5.919565 14.894773 1.0 1.0 1.0 -0.17349762357526471 0.3646550540044688 0.9148361963776541 1
21 1 -2.513711 5.314000 15.179212 1.0 1.0 1.0 -0.15570009139315324 0.3246540306148115 0.9329293874381496 1
22 1 -1.779564 5.261807 15.301290 1.0 1.0 1.0 -0.10879224824607288 0.324664932796211 0.9395514504985859 1
23 1 -1.434198 4.634443 15.538218 1.0 1.0 1.0 -0.08878875392899753 0.28267322487300506 0.9550981128217306 1
24 1 -0.710607 4.574418 15.606485 1.0 1.0 1.0 -0.043939029797273765 0.28268490313646055 0.9582059315195269 1
25 1 -0.359367 3.933739 15.791877 1.0 1.0 1.0 -0.022043154299737237 0.23956936912566956 0.9706289799533325 1
26 1 -5.757135 5.998085 13.994273 1.0 1.0 1.0 -0.3551685801998494 0.36829404698400836 0.8591942589397139 1
27 1 -5.038400 5.998085 14.268806 1.0 1.0 1.0 -0.30806914302682675 0.36829404698400836 0.8771846430888184 1
28 1 -4.742669 5.404248 14.602728 1.0 1.0 1.0 -0.2927532561564955 0.33126542761641203 0.896971988122196 1
29 1 -4.000398 5.385777 14.830211 1.0 1.0 1.0 -0.24465610225272413 0.3312696314796745 0.9112649575671311 1
30 1 -3.675022 4.761487 15.124446 1.0 1.0 1.0 -0.22689179349615432 0.29135019728613 0.9293197386182173 1
31 1 -2.921070 4.728650 15.298578 1.0 1.0 1.0 -0.1788801999573474 0.2913574848932334 0.939740756836644 1
32 1 -2.574455 4.081300 15.544825 1.0 1.0 1.0 -0.15883918831561386 0.24929137426157694 0.9553135207742071 1
33 1 -1.821729 4.039285 15.662388 1.0 1.0 1.0 -0.11202682382255628 0.24930022950645614 0.9619248340240824 1
34 1 -1.463670 3.377715 15.855195 1.0 1.0 1.0 -0.0900209021595784 0.20596994222704157 0.9744088567297431 1
35 1 -0.724899 3.332194 15.916417 1.0 1.0 1.0 -0.045437577969402704 0.2059788132599432 0.9775009744221741 1
36 1 -0.365531 2.665890 16.053683 1.0 1.0 1.0 -0.021887859382891377 0.1623152337240658 0.9864961664967262 1
37 1 -6.905086 5.385777 13.720719 1.0 1.0 1.0 -0.4251540797956772 0.33126963147967664 0.8423208650463374 1
38 1 -6.200175 5.404248 14.046011 1.0 1.0 1.0 -0.37977593161468565 0.3312654276164141 0.863732283889118 1
39 1 -5.917567 4.794873 14.384236 1.0 1.0 1.0 -0.36453491667697757 0.29442766640559487 0.8834175930884923 1
40 1 -5.178796 4.794873 14.666422 1.0 1.0 1.0 -0.3172367774383454 0.2944276664055948 0.9014838746730245 1
41 1 -4.861037 4.154046 14.966940 1.0 1.0 1.0 -0.2995186467182815 0.2546197330116813 0.9194875593661448 1
42 1 -4.099533 4.139133 15.197483 1.0 1.0 1.0 -0.2513054798827312 0.2546231811110964 0.9338161443355838 1
43 1 -3.754414 3.474251 15.450639 1.0 1.0 1.0 -0.23126374173238728 0.2125606384947247 0.9493866739757045 1
44 1 -2.983287 3.449255 15.623851 1.0 1.0 1.0 -0.18325592742378813 0.21256624477225347 0.9598087604556804 1
45 1 -2.620633 2.769400 15.822698 1.0 1.0 1.0 -0.1611957366052732 0.16913147313904733 0.9723222096065167 1
46 1 -1.853741 2.739876 15.936480 1.0 1.0 1.0 -0.11451339613103774 0.16913772644337335 0.9789173160181113 1
47 1 -1.484356 2.054997 16.077572 1.0 1.0 1.0 -0.09086432651172043 0.12528993996222149 0.987950456810378 1
48 1 -0.734917 2.026533 16.133553 1.0 1.0 1.0 -0.04650956443047944 0.1252954853893706 0.991028708846282 1
49 1 -0.369386 1.346491 16.217134 1.0 1.0 1.0 -0.0217778350510788 0.08196940197321943 0.9963968802844783 1
50 1 -8.021815 4.728650 13.350267 1.0 1.0 1.0 -0.493164408913303 0.2913574848932317 0.8196948711428436 1
51 1 -7.343765 4.761487 13.723111 1.0 1.0 1.0 -0.4504313344807318 0.29135019728612843 0.843935231791659 1
52 1 -7.076044 4.139133 14.060557 1.0 1.0 1.0 -0.4352320508450606 0.2546231811110953 0.8635624456621935 1
53 1 -6.354757 4.154046 14.396390 1.0 1.0 1.0 -0.3897436880471549 0.25461973301168017 0.8850246602148794 1
54 1 -6.047060 3.499668 14.698986 1.0 1.0 1.0 -0.3720630907370982 0.21490421286039754 0.9029868414356936 1
55 1 -5.292111 3.499668 14.987351 1.0 1.0 1.0 -0.32467177335485403 0.21490421286039765 0.9210887139040773 1
56 1 -4.951202 2.820572 15.244354 1.0 1.0 1.0 -0.3046452422972556 0.17287914516813646 0.9366451182339984 1
57 1 -4.175008 2.810068 15.477099 1.0 1.0 1.0 -0.2563972315467769 0.17288159875873843 0.9509849696318923 1
58 1 -3.810281 2.115444 15.680147 1.0 1.0 1.0 -0.23431983557763947 0.12941565354275134 0.9635070333282318 1
59 1 -3.027032 2.099772 15.852534 1.0 1.0 1.0 -0.1863541010247035 0.1294191901155935 0.9739213634894238 1
60 1 -2.649558 1.399896 15.996716 1.0 1.0 1.0 -0.16265844233358173 0.08548502274480314 0.9829722997236156 1
61 1 -1.873773 1.384646 16.107973 1.0 1.0 1.0 -0.11608321594083842 0.08548825987263438 0.9895536591821493 1
62 1 -1.495032 0.689878 16.192314 1.0 1.0 1.0 -0.09129264194262485 0.04205693633884259 0.9949356097923755 1
63 1 -0.740083 0.680188 16.245493 1.0 1.0 1.0 -0.047069417823327436 0.04205882302454937 0.9980057741874856 1
64 1 -0.370698 0.000000 16.272733 1.0 1.0 1.0 -0.02173809547937096 0.0 0.9997636996835451 1
65 1 -9.083755 4.039285 12.888541 1.0 1.0 1.0 -0.5577833582258458 0.24930022950645728 0.791660988589387 1
66 1 -8.444332 4.081300 13.302732 1.0 1.0 1.0 -0.5184839396612703 0.249291374261578 0.8179414496356706 1
67 1 -8.192289 3.449255 13.634189 1.0 1.0 1.0 -0.5032816033040002 0.21256624477225325 0.8375698295420969 1
68 1 -7.502051 3.474251 14.019169 1.0 1.0 1.0 -0.46055063356894715 0.2125606384947245 0.8618068744689591 1
69 1 -7.206199 2.810068 14.319288 1.0 1.0 1.0 -0.44288276676081456 0.1728815987587386 0.8797538335903449 1
70 1 -6.472494 2.820572 14.663272 1.0 1.0 1.0 -0.39736092188981237 0.17287914516813674 0.9012308799196868 1
71 1 -6.138243 2.131381 14.920614 1.0 1.0 1.0 -0.3773466332541639 0.1308854170330094 0.9167761591467368 1
72 1 -5.371899 2.131381 15.213331 1.0 1.0 1.0 -0.3299265317521594 0.1308854170330093 0.9348890261705325 1
73 1 -5.007759 1.426344 15.418356 1.0 1.0 1.0 -0.3078488941181854 0.0874218580333427 0.9474104058580992 1
74 1 -4.222334 1.420910 15.652426 1.0 1.0 1.0 -0.2596030811831089 0.08742313437515963 0.9617501940817372 1
75 1 -3.839162 0.710471 15.798784 1.0 1.0 1.0 -0.23589303043210677 0.043462282657846935 0.9708066275936349 1
76 1 -3.049634 0.705128 15.970688 1.0 1.0 1.0 -0.18796199578135886 0.04346349162538324 0.9812141524853882 1
77 1 -2.659413 0.000000 16.056005 1.0 1.0 1.0 -0.16315446393975497 5.271593835422948e-17 0.9866005376526668 1
78 1 -1.880595 0.000000 16.166374 1.0 1.0 1.0 -0.11662029581410356 3.768054012459234e-17 0.9931765737290781 1
79 1 -1.495032 -0.689878 16.192314 1.0 1.0 1.0 -0.09129264194262483 -0.04205693633884256 0.9949356097923757 1
80 1 -0.740083 -0.680188 16.245493 1.0 1.0 1.0 -0.04706941782332746 -0.04205882302454933 0.9980057741874856 1
81 1 -0.369386 -1.346491 16.217134 1.0 1.0 1.0 -0.02177783505107879 -0.08196940197321943 0.9963968802844783 1
82 1 -10.070637 3.332194 12.346662 1.0 1.0 1.0 -0.6178001452572711 0.20597881325994408 0.7588779276063574 1
83 1 -9.479174 3.377715 12.793544 1.0 1.0 1.0 -0.5825082856116044 0.2059699422270424 0.7862954152815712 1
84 1 -9.242622 2.739876 13.114178 1.0 1.0 1.0 -0.5672582979842877 0.1691377264433746 0.8059841517434045 1
85 1 -8.595161 2.769400 13.540632 1.0 1.0 1.0 -0.5280665981601623 0.1691314731390485 0.8321900099745063 1
86 1 -8.312140 2.099772 13.833803 1.0 1.0 1.0 -0.510380763067247 0.12941919011559336 0.8501541918503481 1
87 1 -7.613416 2.115444 14.227478 1.0 1.0 1.0 -0.4676863286094316 0.12941565354275117 0.8743689648254525 1
88 1 -7.287809 1.420910 14.481518 1.0 1.0 1.0 -0.4476700838232183 0.08742313437516078 0.8899149912355311 1
89 1 -6.546341 1.426344 14.830670 1.0 1.0 1.0 -0.4021499192232657 0.08742185803334385 0.9113906194419156 1
90 1 -6.185401 0.715904 15.035234 1.0 1.0 1.0 -0.380073451800744 0.04396341156801126 0.9239109208574001 1
91 1 -5.413163 0.715904 15.330203 1.0 1.0 1.0 -0.3326505890151137 0.043963411568011285 0.9420248425976884 1
92 1 -5.027044 0.000000 15.477687 1.0 1.0 1.0 -0.30893915762229957 1.9516963101011461e-16 0.9510818034678321 1
93 1 -4.238468 0.000000 15.712199 1.0 1.0 1.0 -0.2606983815656486 1.6469393950153346e-16 0.9654202990661898 1
94 1 -3.839162 -0.710471 15.798784 1.0 1.0 1.0 -0.23589303043210663 -0.04346228265784685 0.9708066275936349 1
95 1 -3.049634 -0.705128 15.970688 1.0 1.0 1.0 -0.18796199578135886 -0.04346349162538316 0.9812141524853881 1
96 1 -2.649558 -1.399896 15.996716 1.0 1.0 1.0 -0.16265844233358173 -0.08548502274480306 0.9829722997236154 1
97 1 -1.873773 -1.384646 16.107973 1.0 1.0 1.0 -0.11608321594083847 -0.08548825987263432 0.9895536591821495 1
98 1 -1.484356 -2.054997 16.077572 1.0 1.0 1.0 -0.09086432651172031 -0.12528993996222154 0.987950456810378 1
99 1 -0.734917 -2.026533 16.133553 1.0 1.0 1.0 -0.04650956443047944 -0.12529548538937063 0.9910287088462821 1
100 1 -0.365531 -2.665890 16.053683 1.0 1.0 1.0 -0.02188785938289138 -0.1623152337240658 0.9864961664967262 1
101 1 -10.967350 2.622355 11.739988 1.0 1.0 1.0 -0.6723184716427683 0.16232287903744702 0.7222459107734198 1
102 1 -10.430004 2.665890 12.209396 1.0 1.0 1.0 -0.6413498638437829 0.1623152337240661 0.7498827355318051 1
103 1 -10.207927 2.026533 12.515185 1.0 1.0 1.0 -0.6260196233407017 0.1252954853893717 0.769675563165031 1
104 1 -9.612008 2.054997 12.973085 1.0 1.0 1.0 -0.5909073676036051 0.12528993996222265 0.7969510109511379 1
105 1 -9.342021 1.384646 13.255357 1.0 1.0 1.0 -0.5731791188245992 0.08548825987263414 0.8149585603988738 1
106 1 -8.689614 1.399896 13.689620 1.0 1.0 1.0 -0.5340764217583688 0.08548502274480292 0.8411032556161563 1
107 1 -8.374062 0.705128 13.936937 1.0 1.0 1.0 -0.5140441684057088 0.04346349162538503 0.8566618456682973 1
108 1 -7.670981 0.710471 14.335160 1.0 1.0 1.0 -0.47138013457422007 0.04346228265784874 0.8808585577236334 1
109 1 -7.315632 0.000000 14.536827 1.0 1.0 1.0 -0.4493004317758053 0.0 0.893380726233824 1
110 1 -6.571520 0.000000 14.887750 1.0 1.0 1.0 -0.4037848831935582 0.0 0.9148539599872564 1
111 1 -6.185401 -0.715904 15.035234 1.0 1.0 1.0 -0.38007345180074376 -0.04396341156801177 0.9239109208574002 1
112 1 -5.413163 -0.715904 15.330203 1.0 1.0 1.0 -0.3326505890151141 -0.043963411568011736 0.9420248425976883 1
113 1 -5.007759 -1.426344 15.418356 1.0 1.0 1.0 -0.307848894118186 -0.0874218580333427 0.947410405858099 1
114 1 -4.222334 -1.420910 15.652426 1.0 1.0 1.0 -0.2596030811831087 -0.08742313437515963 0.9617501940817372 1
115 1 -3.810281 -2.115444 15.680147 1.0 1.0 1.0 -0.23431983557763936 -0.12941565354275142 0.963507033328232 1
116 1 -3.027032 -2.099772 15.852534 1.0 1.0 1.0 -0.18635410102470368 -0.12941919011559352 0.9739213634894239 1
117 1 -2.620633 -2.769400 15.822698 1.0 1.0 1.0 -0.1611957366052749 -0.16913147313904495 0.972322209606517 1
118 1 -1.853741 -2.739876 15.936480 1.0 1.0 1.0 -0.11451339613103624 -0.1691377264433709 0.9789173160181118 1
119 1 -1.463670 -3.377715 15.855195 1.0 1.0 1.0 -0.0900209021595753 -0.20596994222704154 0.9744088567297433 1
120 1 -0.724899 -3.332194 15.916417 1.0 1.0 1.0 -0.04543757796940269 -0.20597881325994316 0.9775009744221741 1
121 1 -0.359367 -3.933739 15.791877 1.0 1.0 1.0 -0.022043154299737248 -0.23956936912566956 0.9706289799533325 1
122 1 -11.764896 1.923752 11.086279 1.0 1.0 1.0 -0.7208104127119985 0.1192177330778978 0.6828026662555774 1
123 1 -11.284435 1.960567 11.567642 1.0 1.0 1.0 -0.6942219495266896 0.11921204355983754 0.7098199584864108 1
124 1 -11.075261 1.324061 11.855659 1.0 1.0 1.0 -0.6787992653144611 0.08197332488291899 0.7297341511921909 1
125 1 -10.536099 1.346491 12.333795 1.0 1.0 1.0 -0.648032346997323 0.08196940197321805 0.7571889423289897 1
126 1 -10.278703 0.680188 12.602064 1.0 1.0 1.0 -0.6302537101535589 0.04205882302455 0.7752491962223912 1
127 1 -9.680545 0.689878 13.065726 1.0 1.0 1.0 -0.5952448887851643 0.04205693633884324 0.8024429802054024 1
128 1 -9.375870 0.000000 13.303434 1.0 1.0 1.0 -0.5751940794872282 0.0 0.8180169747155863 1
129 1 -8.721794 0.000000 13.740382 1.0 1.0 1.0 -0.5361255343678345 0.0 0.8441382655695713 1
130 1 -8.374062 -0.705128 13.936937 1.0 1.0 1.0 -0.5140441684057092 -0.043463491625384265 0.8566618456682971 1
131 1 -7.670981 -0.710471 14.335160 1.0 1.0 1.0 -0.4713801345742196 -0.04346228265784791 0.8808585577236336 1
132 1 -7.287809 -1.420910 14.481518 1.0 1.0 1.0 -0.4476700838232172 -0.08742313437516108 0.8899149912355315 1
133 1 -6.546341 -1.426344 14.830670 1.0 1.0 1.0 -0.40214991922326526 -0.08742185803334414 0.9113906194419158 1
134 1 -6.138243 -2.131381 14.920614 1.0 1.0 1.0 -0.3773466332541639 -0.13088541703300885 0.9167761591467368 1
135 1 -5.371899 -2.131381 15.213331 1.0 1.0 1.0 -0.32992653175215997 -0.13088541703300885 0.9348890261705324 1
136 1 -4.951202 -2.820572 15.244354 1.0 1.0 1.0 -0.30464524229725554 -0.1728791451681368 0.9366451182339983 1
137 1 -4.175008 -2.810068 15.477099 1.0 1.0 1.0 -0.2563972315467769 -0.1728815987587387 0.9509849696318922 1
138 1 -3.754414 -3.474251 15.450639 1.0 1.0 1.0 -0.23126374173238667 -0.21256063849472603 0.9493866739757044 1
139 1 -2.983287 -3.449255 15.623851 1.0 1.0 1.0 -0.18325592742379165 -0.21256624477225483 0.9598087604556794 1
140 1 -2.574455 -4.081300 15.544825 1.0 1.0 1.0 -0.1588391883156167 -0.24929137426157924 0.955313520774206 1
141 1 -1.821729 -4.039285 15.662388 1.0 1.0 1.0 -0.11202682382255447 -0.24930022950645853 0.9619248340240819 1
142 1 -1.434198 -4.634443 15.538218 1.0 1.0 1.0 -0.08878875392899718 -0.2826732248730053 0.9550981128217307 1
143 1 -0.710607 -4.574418 15.606485 1.0 1.0 1.0 -0.04393902979727388 -0.2826849031364608 0.9582059315195269 1
144 1 -0.351239 -5.130276 15.445908 1.0 1.0 1.0 -0.022209493786484864 -0.3125413793899781 0.9496444727132137 1
145 1 -12.460338 1.248249 10.403735 1.0 1.0 1.0 -0.7631108860166607 0.07742802550903682 0.6416125595003881 1
146 1 -12.036444 1.274738 10.887091 1.0 1.0 1.0 -0.740737066916437 0.07742449756315767 0.667318548275954 1
147 1 -11.838343 0.645249 11.155592 1.0 1.0 1.0 -0.7252332513157236 0.039992043347794506 0.687340794406161 1
148 1 -11.357621 0.657758 11.642797 1.0 1.0 1.0 -0.698816519794732 0.03999012120825976 0.7141822329543963 1
149 1 -11.111943 -0.000000 11.894979 1.0 1.0 1.0 -0.6810013475125637 0.0 0.7322821619335489 1
150 1 -10.572187 -0.000000 12.376111 1.0 1.0 1.0 -0.6503065133912808 0.0 0.7596719282959428 1
151 1 -10.278703 -0.680188 12.602064 1.0 1.0 1.0 -0.6302537101535592 -0.042058823024549156 0.7752491962223909 1
152 1 -9.680545 -0.689878 13.065726 1.0 1.0 1.0 -0.5952448887851639 -0.042056936338842436 0.8024429802054027 1
153 1 -9.342021 -1.384646 13.255357 1.0 1.0 1.0 -0.5731791188245985 -0.0854882598726341 0.8149585603988745 1
154 1 -8.689614 -1.399896 13.689620 1.0 1.0 1.0 -0.5340764217583697 -0.08548502274480288 0.841103255616156 1
155 1 -8.312140 -2.099772 13.833803 1.0 1.0 1.0 -0.5103807630672473 -0.12941919011559444 0.8501541918503479 1
156 1 -7.613416 -2.115444 14.227478 1.0 1.0 1.0 -0.4676863286094309 -0.12941565354275228 0.8743689648254527 1
157 1 -7.206199 -2.810068 14.319288 1.0 1.0 1.0 -0.4428827667608149 -0.17288159875873801 0.879753833590345 1
158 1 -6.472494 -2.820572 14.663272 1.0 1.0 1.0 -0.39736092188981237 -0.17287914516813624 0.9012308799196869 1
159 1 -6.047060 -3.499668 14.698986 1.0 1.0 1.0 -0.37206309073709787 -0.21490421286039776 0.902986841435694 1
160 1 -5.292111 -3.499668 14.987351 1.0 1.0 1.0 -0.324671773354854 -0.21490421286039774 0.9210887139040774 1
161 1 -4.861037 -4.154046 14.966940 1.0 1.0 1.0 -0.2995186467182815 -0.2546197330116813 0.9194875593661447 1
162 1 -4.099533 -4.139133 15.197483 1.0 1.0 1.0 -0.25130547988273 -0.2546231811110964 0.9338161443355842 1
163 1 -3.675022 -4.761487 15.124446 1.0 1.0 1.0 -0.2268917934961549 -0.29135019728612727 0.9293197386182179 1
164 1 -2.921070 -4.728650 15.298578 1.0 1.0 1.0 -0.17888019995734786 -0.2913574848932306 0.9397407568366448 1
165 1 -2.513711 -5.314000 15.179212 1.0 1.0 1.0 -0.1557000913931518 -0.32465403061481135 0.9329293874381497 1
166 1 -1.779564 -5.261807 15.301290 1.0 1.0 1.0 -0.10879224824607238 -0.324664932796211 0.939551450498586 1
167 1 -1.397529 -5.807529 15.143628 1.0 1.0 1.0 -0.08720675495257978 -0.3543300171276402 0.9310452302938708 1
168 1 -0.692796 -5.736023 15.219979 1.0 1.0 1.0 -0.04212119778780862 -0.3543438546383831 0.9341660652030412 1
169 1 -0.341556 -6.241570 15.032697 1.0 1.0 1.0 -0.022351458900814983 -0.38038647793545577 0.9245574831717409 1
170 1 -13.055943 0.604942 9.709318 1.0 1.0 1.0 -0.7993648417113814 0.03755075990915458 0.5996714019077309 1
171 1 -12.685857 0.618761 10.186065 1.0 1.0 1.0 -0.7808765238683308 0.03754920169724274 0.6235558611088601 1
172 1 -12.497007 -0.000000 10.434398 1.0 1.0 1.0 -0.765324271490335 0.0 0.6436449016870933 1
173 1 -12.073387 -0.000000 10.920569 1.0 1.0 1.0 -0.7430496298661899 0.0 0.6692363166742509 1
174 1 -11.838343 -0.645249 11.155592 1.0 1.0 1.0 -0.7252332513157237 -0.03999204334779452 0.687340794406161 1
175 1 -11.357621 -0.657758 11.642797 1.0 1.0 1.0 -0.698816519794732 -0.03999012120825979 0.7141822329543964 1
176 1 -11.075261 -1.324061 11.855659 1.0 1.0 1.0 -0.6787992653144611 -0.08197332488291903 0.729734151192191 1
177 1 -10.536099 -1.346491 12.333795 1.0 1.0 1.0 -0.6480323469973239 -0.08196940197321805 0.7571889423289889 1
178 1 -10.207927 -2.026533 12.515185 1.0 1.0 1.0 -0.626019623340702 -0.12529548538937257 0.7696755631650305 1
179 1 -9.612008 -2.054997 12.973085 1.0 1.0 1.0 -0.5909073676036046 -0.12528993996222348 0.7969510109511381 1
180 1 -9.242622 -2.739876 13.114178 1.0 1.0 1.0 -0.5672582979842877 -0.1691377264433747 0.8059841517434044 1
181 1 -8.595161 -2.769400 13.540632 1.0 1.0 1.0 -0.528066598160162 -0.16913147313904867 0.8321900099745064 1
182 1 -8.192289 -3.449255 13.634189 1.0 1.0 1.0 -0.5032816033040006 -0.21256624477225225 0.837569829542097 1
183 1 -7.502051 -3.474251 14.019169 1.0 1.0 1.0 -0.4605506335689472 -0.21256063849472354 0.8618068744689595 1
184 1 -7.076044 -4.139133 14.060557 1.0 1.0 1.0 -0.43523205084505884 -0.25462318111109733 0.8635624456621939 1
185 1 -6.354757 -4.154046 14.396390 1.0 1.0 1.0 -0.3897436880471554 -0.2546197330116823 0.8850246602148787 1
186 1 -5.917567 -4.794873 14.384236 1.0 1.0 1.0 -0.36453491667697946 -0.29442766640559437 0.8834175930884914 1
187 1 -5.178796 -4.794873 14.666422 1.0 1.0 1.0 -0.3172367774383453 -0.2944276664055944 0.9014838746730247 1
188 1 -4.742669 -5.404248 14.602728 1.0 1.0 1.0 -0.29275325615649433 -0.331265427616413 0.896971988122196 1
189 1 -4.000398 -5.385777 14.830211 1.0 1.0 1.0 -0.24465610225272635 -0.33126963147967553 0.9112649575671301 1
190 1 -3.576574 -5.958505 14.719903 1.0 1.0 1.0 -0.22142437976039944 -0.3646465497559241 0.9044358118732487 1
191 1 -2.843838 -5.919565 14.894773 1.0 1.0 1.0 -0.17349762357526388 -0.36465505400446996 0.9148361963776538 1
192 1 -2.441564 -6.452778 14.744842 1.0 1.0 1.0 -0.151915240368869 -0.39432206047543494 0.9063287882253748 1
193 1 -1.729403 -6.392934 14.871619 1.0 1.0 1.0 -0.10500319504445867 -0.3943343831205253 0.9129483683754576 1
194 1 -1.355412 -6.885884 14.690109 1.0 1.0 1.0 -0.08532424474540896 -0.42026312887920175 0.9033817995528186 1
195 1 -0.672299 -6.806027 14.774836 1.0 1.0 1.0 -0.0400958718723995 -0.42027841944454924 0.9065088919629988 1
196 1 -0.330743 -7.259664 14.569912 1.0 1.0 1.0 -0.02243917724100744 -0.44261570746563317 0.896430599003316 1
197 1 -13.557863 0.000000 9.017615 1.0 1.0 1.0 -0.8299481170790483 0.0 0.5578405891981529 1
198 1 -13.237178 0.000000 9.480906 1.0 1.0 1.0 -0.8149171365754251 0.0 0.5795774844796078 1
199 1 -13.055943 -0.604942 9.709318 1.0 1.0 1.0 -0.7993648417113813 -0.03755075990915458 0.5996714019077309 1
200 1 -12.685857 -0.618761 10.186065 1.0 1.0 1.0 -0.7808765238683308 -0.03754920169724275 0.6235558611088601 1
201 1 -12.460338 -1.248249 10.403735 1.0 1.0 1.0 -0.7631108860166607 -0.07742802550903688 0.6416125595003881 1
202 1 -12.036444 -1.274738 10.887091 1.0 1.0 1.0 -0.7407370669164369 -0.07742449756315767 0.6673185482759539 1
203 1 -11.764896 -1.923752 11.086279 1.0 1.0 1.0 -0.7208104127119986 -0.11921773307789778 0.6828026662555775 1
204 1 -11.284435 -1.960567 11.567642 1.0 1.0 1.0 -0.6942219495266895 -0.11921204355983753 0.7098199584864108 1
205 1 -10.967350 -2.622355 11.739988 1.0 1.0 1.0 -0.6723184716427683 -0.162322879037447 0.7222459107734197 1
206 1 -10.430004 -2.665890 12.209396 1.0 1.0 1.0 -0.641349863843783 -0.16231523372406606 0.749882735531805 1
207 1 -10.070637 -3.332194 12.346662 1.0 1.0 1.0 -0.6178001452572712 -0.2059788132599442 0.7588779276063573 1
208 1 -9.479174 -3.377715 12.793544 1.0 1.0 1.0 -0.5825082856116043 -0.20596994222704249 0.7862954152815712 1
209 1 -9.083755 -4.039285 12.888541 1.0 1.0 1.0 -0.5577833582258457 -0.24930022950645717 0.7916609885893869 1
210 1 -8.444332 -4.081300 13.302732 1.0 1.0 1.0 -0.518483939661271 -0.24929137426157788 0.81794144963567 1
211 1 -8.021815 -4.728650 13.350267 1.0 1.0 1.0 -0.4931644089133033 -0.2913574848932325 0.819694871142843 1
212 1 -7.343765 -4.761487 13.723111 1.0 1.0 1.0 -0.45043133448072925 -0.29135019728612915 0.84393523179166 1
213 1 -6.905086 -5.385777 13.720719 1.0 1.0 1.0 -0.4251540797956764 -0.3312696314796747 0.8423208650463386 1
214 1 -6.200175 -5.404248 14.046011 1.0 1.0 1.0 -0.3797759316146871 -0.33126542761641214 0.863732283889118 1
215 1 -5.757135 -5.998085 13.994273 1.0 1.0 1.0 -0.35516858019984954 -0.3682940469840087 0.8591942589397138 1
216 1 -5.038400 -5.998085 14.268806 1.0 1.0 1.0 -0.30806914302682525 -0.3682940469840086 0.8771846430888187 1
217 1 -4.602426 -6.556093 14.171173 1.0 1.0 1.0 -0.2846870897340646 -0.40189224816311653 0.8703079235564529 1
218 1 -3.882871 -6.534985 14.394788 1.0 1.0 1.0 -0.23682816814542734 -0.4018969466962979 0.8845288367312137 1
219 1 -3.463935 -7.054028 14.256964 1.0 1.0 1.0 -0.2151078379682378 -0.4317591124678778 0.8759638616093592 1
220 1 -2.755364 -7.010760 14.432148 1.0 1.0 1.0 -0.16739666640688078 -0.43176835220154164 0.886315094147126 1
221 1 -2.361266 -7.489819 14.261237 1.0 1.0 1.0 -0.14763263585623146 -0.457814503444492 0.8767043317253627 1
222 1 -1.673475 -7.424787 14.392420 1.0 1.0 1.0 -0.10085175646896534 -0.4578276211417919 0.8833022090636773 1
223 1 -1.309559 -7.864606 14.196037 1.0 1.0 1.0 -0.08319758307740788 -0.480166467374788 0.8732229530760712 1
224 1 -0.649940 -7.779341 14.288803 1.0 1.0 1.0 -0.0379654980306258 -0.48018252023560926 0.8763466027887968 1
225 1 -0.319197 -8.181946 14.074335 1.0 1.0 1.0 -0.022452221972162487 -0.4990599089520744 0.8662765753529642 1
226 1 -0.516472 8.698418 13.755138 1.0 1.0 1.0 -0.036328458273916064 0.5353883672259904 0.8438243533808019 1
227 1 -1.140095 9.378576 13.260353 1.0 1.0 1.0 -0.07385811136469146 0.5772322246667212 0.8132330159259085 1
228 1 -1.051625 8.830966 13.638863 1.0 1.0 1.0 -0.06142946621337317 0.5416119864489797 0.8383811047581704 1
229 1 -1.513970 8.399759 13.865295 1.0 1.0 1.0 -0.09706575729193431 0.5164738188303231 0.8507837758350626 1
230 1 -1.800899 10.062178 12.671431 1.0 1.0 1.0 -0.11359344570870152 0.6192611005995732 0.7769248473155105 1
231 1 -1.706563 9.513766 13.101361 1.0 1.0 1.0 -0.10242568519534592 0.5834599892364599 0.8056571354940352 1
232 1 -2.193102 9.078987 13.334697 1.0 1.0 1.0 -0.1380575280624827 0.5583206569416859 0.8180575548074115 1
233 1 -2.088978 8.512590 13.720121 1.0 1.0 1.0 -0.12563236809466705 0.5227041046398971 0.843206337191277 1
234 1 -2.572359 8.042469 13.919681 1.0 1.0 1.0 -0.16144659715508153 0.49397992364415705 0.8543528728245476 1
235 1 -2.492069 10.735040 11.981973 1.0 1.0 1.0 -0.1551534488973618 0.6605931724690913 0.7345366347449765 1
236 1 -2.395705 10.194296 12.464615 1.0 1.0 1.0 -0.14557802723069 0.625197350488145 0.7667693987961598 1
237 1 -2.906499 9.758063 12.702064 1.0 1.0 1.0 -0.181095536909651 0.6001340394535821 0.7791299899250007 1
238 1 -2.798232 9.191166 13.142217 1.0 1.0 1.0 -0.1698987385092675 0.5642331216297923 0.807945173331 1
239 1 -3.305285 8.714028 13.347313 1.0 1.0 1.0 -0.20581197897814724 0.5354255540372903 0.8191220332727959 1
240 1 -3.183536 8.131727 13.739353 1.0 1.0 1.0 -0.1934289982866042 0.4999218818690712 0.8441938963593181 1
241 1 -3.681012 7.622345 13.905725 1.0 1.0 1.0 -0.22883406000121473 0.46769482828733905 0.8537543678228748 1
242 1 -3.203823 11.380621 11.189451 1.0 1.0 1.0 -0.19798945191368414 0.7002027564736801 0.6859418902192658 1
243 1 -3.110353 10.857035 11.723614 1.0 1.0 1.0 -0.1903068872045247 0.6658809286891343 0.721377763374101 1
244 1 -3.644642 10.421462 11.961644 1.0 1.0 1.0 -0.2256365465587873 0.6409453972631934 0.7336737330613324 1
245 1 -3.537152 9.863234 12.457452 1.0 1.0 1.0 -0.21601967658292054 0.6053899847083235 0.7660538269233215 1
246 1 -4.067269 9.381269 12.665501 1.0 1.0 1.0 -0.2519280399255863 0.5765820705403951 0.7772292960449978 1
247 1 -3.943669 8.798959 13.115209 1.0 1.0 1.0 -0.24073493070385454 0.5406846093791304 0.8060439481315813 1
248 1 -4.462957 8.279085 13.285705 1.0 1.0 1.0 -0.27629884750726896 0.5083097714317929 0.8156470579442516 1
249 1 -4.322050 7.684771 13.684181 1.0 1.0 1.0 -0.263983981992836 0.47299179034098315 0.8405898069339394 1
250 1 -4.824528 7.137562 13.811805 1.0 1.0 1.0 -0.2983105083105617 0.43755882103935284 0.8482647692567138 1
251 1 -3.923637 11.981131 10.296547 1.0 1.0 1.0 -0.24139411368244165 0.7369900682234652 0.6313275862968768 1
252 1 -3.838801 11.484497 10.878016 1.0 1.0 1.0 -0.23583477924503463 0.7044451575624012 0.669431831395348 1
253 1 -4.394801 11.051515 11.112525 1.0 1.0 1.0 -0.2709523647814941 0.6796546610054551 0.6816556005732485 1
254 1 -4.294112 10.512066 11.661990 1.0 1.0 1.0 -0.2632326105698078 0.645162118506436 0.7172687317713572 1
255 1 -4.845743 10.027610 11.869804 1.0 1.0 1.0 -0.2990660284646606 0.6164100079067767 0.7284217272780531 1
256 1 -4.726391 9.455041 12.377508 1.0 1.0 1.0 -0.2894342434453655 0.5807917283385958 0.7608605568792981 1
257 1 -5.266122 8.927043 12.549991 1.0 1.0 1.0 -0.325059810620648 0.5483574027262387 0.7704805503026031 1
258 1 -5.126289 8.333397 13.008481 1.0 1.0 1.0 -0.3138924870267593 0.5125328400762663 0.7992381337445755 1
259 1 -5.647267 7.772516 13.139058 1.0 1.0 1.0 -0.3483892333890422 0.4769223070085365 0.8069510859626193 1
260 1 -5.486412 7.170996 13.543907 1.0 1.0 1.0 -0.33615111057839187 0.4418135925049794 0.8317470651194133 1
261 1 -5.983046 6.589527 13.628742 1.0 1.0 1.0 -0.3686960212394559 0.4037093474065084 0.8373063995568205 1
262 1 -4.636963 12.519155 9.312048 1.0 1.0 1.0 -0.2845375068204907 0.7698831535383075 0.5712428004888027 1
263 1 -4.566836 12.058627 9.933378 1.0 1.0 1.0 -0.2812239982775116 0.7397858508510906 0.6112527772315951 1
264 1 -5.141614 11.629822 10.160005 1.0 1.0 1.0 -0.31615929510420415 0.7151198252316844 0.6234155401333993 1
265 1 -5.054414 11.119344 10.757683 1.0 1.0 1.0 -0.3105765070694206 0.6824376148201019 0.6616805385797655 1
266 1 -5.624919 10.634723 10.961661 1.0 1.0 1.0 -0.346308440541545 0.6537628237935995 0.6728035628882342 1
267 1 -5.516938 10.082439 11.524318 1.0 1.0 1.0 -0.3385712555504192 0.6191870527816116 0.7085032805729515 1
268 1 -6.074769 9.549020 11.696225 1.0 1.0 1.0 -0.37419259448847614 0.5867532329832004 0.7181229322433207 1
269 1 -5.943306 8.966193 12.214195 1.0 1.0 1.0 -0.3645638716705155 0.5511375003226734 0.750560216911794 1
270 1 -6.480677 8.394320 12.346307 1.0 1.0 1.0 -0.3991430907819185 0.5154399136805912 0.7582918227608694 1
271 1 -6.324471 7.794289 12.812680 1.0 1.0 1.0 -0.3880099484145083 0.4797142335127926 0.7869704785419874 1
272 1 -6.834950 7.196611 12.899880 1.0 1.0 1.0 -0.4206921588260903 0.44144923506642686 0.7925532665767709 1
273 1 -6.654379 6.593369 13.311094 1.0 1.0 1.0 -0.40852042323467685 0.4065194836668838 0.8172227194586373 1
274 1 -7.133379 5.983455 13.351333 1.0 1.0 1.0 -0.43861352205863213 0.36650690879370973 0.8205430299952593 1
275 1 -5.328452 12.979569 8.250918 1.0 1.0 1.0 -0.3265304622295425 0.7979567756634748 0.5065992907702422 1
276 1 -5.278780 12.562649 8.901728 1.0 1.0 1.0 -0.32545129213039103 0.7708720318123444 0.5475744397067549 1