    Radius equal to 21.684221

    8000 atoms

    1 atom types

    -43.333868 43.333868 xlo xhi
    -43.333868 43.333868 ylo yhi
    -43.333868 43.333868 zlo zhi


    Atoms 

    1 1 -0.315958 11.026636 18.668661 1.0 1.0 1.0 -0.01669221517437951 0.5059754890874142 0.8623863254918438 1
2 1 -1.288747 10.726026 18.800755 1.0 1.0 1.0 -0.0615223556360616 0.4924348387738672 0.8681721772314206 1
3 1 -0.640554 10.635490 18.885577 1.0 1.0 1.0 -0.027925342479936013 0.4924418905409002 0.8698972121393896 1
4 1 -0.324595 10.130147 19.169029 1.0 1.0 1.0 -0.01668648199984156 0.46472474495139054 0.8852979570451601 1
5 1 -2.309467 10.383681 18.894273 1.0 1.0 1.0 -0.10853207850296086 0.47700161987150225 0.8721755801303943 1
6 1 -1.638586 10.307717 19.005925 1.0 1.0 1.0 -0.07396264159402342 0.4770078655945333 0.8757813790035625 1
7 1 -1.323290 9.788402 19.302386 1.0 1.0 1.0 -0.06272340735300712 0.4492913603706531 0.8911807042717635 1
8 1 -0.657494 9.701369 19.380669 1.0 1.0 1.0 -0.0291275065838656 0.44929822826806853 0.8929068766872509 1
9 1 -0.332898 9.162094 19.649255 1.0 1.0 1.0 -0.016647116552519926 0.42021359033113925 0.9072725125404716 1
10 1 -3.373573 9.997040 18.941956 1.0 1.0 1.0 -0.15750756780279573 0.4595514140275199 0.8740731456520984 1
11 1 -2.683406 9.936795 19.083727 1.0 1.0 1.0 -0.1221877497243723 0.4595566134520565 0.8797032868244674 1
12 1 -2.370511 9.403453 19.392543 1.0 1.0 1.0 -0.11096966278418474 0.43189419030281834 0.8950715850278329 1
13 1 -1.681276 9.331024 19.499550 1.0 1.0 1.0 -0.0763380872964449 0.4319002385101569 0.8986849728368611 1
14 1 -1.356190 8.776568 19.779979 1.0 1.0 1.0 -0.06383454112676047 0.402763083054665 0.9130755994371096 1
15 1 -0.673609 8.694672 19.851402 1.0 1.0 1.0 -0.030304442082856344 0.40276960633083486 0.9147995873447643 1
16 1 -0.340711 8.122629 20.100405 1.0 1.0 1.0 -0.016579153895020238 0.3724528642519023 0.9279030097842551 1
17 1 -4.474573 9.564329 18.936577 1.0 1.0 1.0 -0.20814600372333233 0.4399930307418434 0.8735452902011512 1
18 1 -3.769555 9.520580 19.111487 1.0 1.0 1.0 -0.1723528433681252 0.4399969661421612 0.8813042421142748 1
19 1 -3.460896 8.973290 19.431596 1.0 1.0 1.0 -0.16117361199500096 0.41243265474671514 0.8966171825785304 1
20 1 -2.752018 8.916407 19.570880 1.0 1.0 1.0 -0.12574184508152111 0.4124376493630443 0.9022661324594763 1
21 1 -2.428087 8.346919 19.862413 1.0 1.0 1.0 -0.1132379260440849 0.3833014072958515 0.91665544413932 1
22 1 -1.721495 8.279509 19.964505 1.0 1.0 1.0 -0.07860763174072857 0.38330710348544383 0.9202697999226711 1
23 1 -1.386778 7.691415 20.223838 1.0 1.0 1.0 -0.06483817941274893 0.3528940830899569 0.9334140435040276 1
24 1 -0.688576 7.616431 20.288316 1.0 1.0 1.0 -0.03142714034511942 0.35290009178546605 0.935133070780591 1
25 1 -0.347865 7.013884 20.512840 1.0 1.0 1.0 -0.016490153362147403 0.3215432010758628 0.9467513108963621 1
26 1 -5.603953 9.084834 18.871369 1.0 1.0 1.0 -0.26005280640260175 0.41828143693262854 0.8702948795665216 1
27 1 -4.889525 9.057868 19.081926 1.0 1.0 1.0 -0.22411472259241222 0.4182839435289643 0.8802335676984742 1
28 1 -4.586960 8.496882 19.411823 1.0 1.0 1.0 -0.21298661005280958 0.3908483139532549 0.8954743432494928 1
29 1 -3.863349 8.456053 19.586583 1.0 1.0 1.0 -0.1770490531107386 0.39085205391416034 0.9032653567715707 1
30 1 -3.542316 7.871880 19.888084 1.0 1.0 1.0 -0.16456349622085711 0.3617607103633205 0.9176317584679562 1
31 1 -2.815932 7.819629 20.024630 1.0 1.0 1.0 -0.12908195402514924 0.36176536103825757 0.9232895930843739 1
32 1 -2.480921 7.215902 20.293501 1.0 1.0 1.0 -0.11529239966689593 0.33130949802999765 0.9364516426885907 1
33 1 -1.758360 7.155098 20.390617 1.0 1.0 1.0 -0.0807155582336629 0.331314679825068 0.9400614775595482 1
34 1 -1.414341 6.536095 20.623655 1.0 1.0 1.0 -0.06571776133313664 0.2998311599604341 0.9517260379763398 1
35 1 -0.702048 6.469865 20.681400 1.0 1.0 1.0 -0.03246270708945116 0.2998364839357144 0.953438123608183 1
36 1 -0.354183 5.840297 20.876603 1.0 1.0 1.0 -0.01638991225988905 0.2676894865552665 0.9633658233318696 1
37 1 -6.751266 8.559156 18.740505 1.0 1.0 1.0 -0.31274618114419306 0.3944301556575627 0.8640686769508975 1
38 1 -6.033762 8.548668 18.988457 1.0 1.0 1.0 -0.2770339552298541 0.3944311530124694 0.8761713606269935 1
39 1 -5.739073 7.974452 19.326187 1.0 1.0 1.0 -0.26596245054547474 0.36713801549862873 0.8913325151006073 1
40 1 -5.006700 7.949632 19.538996 1.0 1.0 1.0 -0.2298675930735975 0.3671403649101967 0.901315062621367 1
41 1 -4.690331 7.351367 19.848911 1.0 1.0 1.0 -0.2174134635622776 0.3381246582051789 0.9156435449319157 1
42 1 -3.949559 7.314444 20.023238 1.0 1.0 1.0 -0.1813921767322978 0.3381280895523658 0.9234534494364002 1
43 1 -3.615882 6.695773 20.300490 1.0 1.0 1.0 -0.16760229668716045 0.3076733383219264 0.9366144281565549 1
44 1 -2.873629 6.649483 20.434207 1.0 1.0 1.0 -0.13212208873786027 0.3076775005431031 0.942272948421578 1
45 1 -2.527682 6.014777 20.674969 1.0 1.0 1.0 -0.11708872271408646 0.27612055844846795 0.953964186023401 1
46 1 -1.790956 5.962193 20.767301 1.0 1.0 1.0 -0.08260174406150808 0.276125064838612 0.9575656115618759 1
47 1 -1.438156 5.316339 20.968992 1.0 1.0 1.0 -0.06645844664666435 0.24383776019747264 0.9675362636982617 1
48 1 -0.713676 5.260674 21.020549 1.0 1.0 1.0 -0.03337597423057011 0.2438422391247378 0.9692404277385434 1
49 1 -0.359493 4.608824 21.181944 1.0 1.0 1.0 -0.016289754555102506 0.21121000784216792 0.9773049557245915 1
50 1 -7.904407 7.989418 18.539615 1.0 1.0 1.0 -0.3656704111170912 0.368521325564087 0.8546795791628261 1
51 1 -7.190835 7.994438 18.825713 1.0 1.0 1.0 -0.33058248989663735 0.3685208429207581 0.8688541912810881 1
52 1 -6.905622 7.407714 19.168905 1.0 1.0 1.0 -0.3195655766663012 0.3413654253539244 0.8839386226333075 1
53 1 -6.171364 7.398216 19.421427 1.0 1.0 1.0 -0.28370506172503734 0.3413663441372006 0.8960917682034554 1
54 1 -5.861357 6.786731 19.737786 1.0 1.0 1.0 -0.2712885561590078 0.31244094989185645 0.9103752919141839 1
55 1 -5.112698 6.764702 19.952460 1.0 1.0 1.0 -0.23509530066522094 0.31244306544358724 0.9203855336006448 1
56 1 -4.782017 6.132081 20.236562 1.0 1.0 1.0 -0.22131903388698695 0.282020451310897 0.9335321902761193 1
57 1 -4.025973 6.100075 20.410264 1.0 1.0 1.0 -0.18526368520262104 0.28202345859963107 0.9413501663805272 1
58 1 -3.679599 5.450749 20.657648 1.0 1.0 1.0 -0.1702154146165266 0.2504366776536186 0.953052035889301 1
59 1 -2.923561 5.411741 20.788636 1.0 1.0 1.0 -0.13477257387861424 0.25044021044539494 0.9587054053890589 1
60 1 -2.567053 4.750739 20.996098 1.0 1.0 1.0 -0.11858483352335308 0.21806485909438703 0.9687029237523669 1
61 1 -1.818375 4.707921 21.084121 1.0 1.0 1.0 -0.08420502492385797 0.21806854063721753 0.9722940015046512 1
62 1 -1.457532 4.040609 21.249891 1.0 1.0 1.0 -0.06704768690618024 0.18530078671477 0.980391873754275 1
63 1 -0.723130 3.997176 21.296157 1.0 1.0 1.0 -0.03413186351542445 0.18530427983097275 0.9820882545725151 1
64 1 -0.363637 3.328966 21.419933 1.0 1.0 1.0 -0.016201403035227758 0.1525376005547832 0.9881648622353861 1
65 1 -9.050097 7.379350 18.266266 1.0 1.0 1.0 -0.4182181977047132 0.34071144386832997 0.8420268707860691 1
66 1 -8.347826 7.398236 18.590070 1.0 1.0 1.0 -0.3841609975459296 0.34070963150782646 0.8581009701441417 1
67 1 -8.073400 6.800012 18.936009 1.0 1.0 1.0 -0.37318927871171215 0.31366887232159024 0.873121755994623 1
68 1 -7.344769 6.804470 19.228747 1.0 1.0 1.0 -0.3379807866969335 0.31366843703450503 0.8873449720554304 1
69 1 -7.042652 6.180946 19.549213 1.0 1.0 1.0 -0.32560076678910743 0.284830862376664 0.9015850045914202 1
70 1 -6.293499 6.172705 19.805730 1.0 1.0 1.0 -0.2896465342489544 0.2848316705965455 0.9137701049075475 1
71 1 -5.967427 5.527463 20.094793 1.0 1.0 1.0 -0.2758909881627176 0.2544570738526271 0.9268957655621034 1
72 1 -5.204604 5.508869 20.310951 1.0 1.0 1.0 -0.23964653923252863 0.25445887924585286 0.9369206022960627 1
73 1 -4.859358 4.846364 20.563545 1.0 1.0 1.0 -0.22459803741959333 0.2228732319642696 0.948621760271747 1
74 1 -4.090396 4.820250 20.736540 1.0 1.0 1.0 -0.18854389020253892 0.22287570523016187 0.9564400773103618 1
75 1 -3.731549 4.145614 20.948823 1.0 1.0 1.0 -0.17233278175817796 0.1904545824806449 0.9664514805946605 1
76 1 -2.964244 4.115112 21.077392 1.0 1.0 1.0 -0.13694568896023063 0.19045735809727432 0.972096637697001 1
77 1 -2.597817 3.433887 21.246989 1.0 1.0 1.0 -0.11974332379117042 0.15760396576679428 0.9802155509794883 1
78 1 -1.839783 3.402202 21.331464 1.0 1.0 1.0 -0.08546758300620695 0.15760669454551032 0.9837964332571629 1
79 1 -1.471861 2.720037 21.457573 1.0 1.0 1.0 -0.06747560044227145 0.12472742832532403 0.9898939902677993 1
80 1 -0.730116 2.690233 21.499776 1.0 1.0 1.0 -0.034698326217287634 0.12472982282739101 0.9915838327923497 1
81 1 -0.366480 2.012580 21.583113 1.0 1.0 1.0 -0.016135556677911812 0.09221070542744364 0.9956087733719842 1
82 1 -10.174538 6.734256 17.920319 1.0 1.0 1.0 -0.46976077436379365 0.3112310711800872 0.8261113939422603 1
83 1 -9.490905 6.764741 18.280095 1.0 1.0 1.0 -0.4371257526229666 0.31122819174318433 0.8438353447551676 1
84 1 -9.228206 6.156339 18.625838 1.0 1.0 1.0 -0.42618356912832717 0.28426348910747096 0.8588142023543202 1
85 1 -8.512974 6.172724 18.957948 1.0 1.0 1.0 -0.3920485981255781 0.2842618960344296 0.8749246088496312 1
86 1 -8.220014 5.538671 19.279906 1.0 1.0 1.0 -0.37969709117308276 0.25549363108934076 0.8891305435241125 1
87 1 -7.478324 5.542435 19.578432 1.0 1.0 1.0 -0.34441647179370183 0.2554932590987013 0.9033828028650436 1
88 1 -7.158336 4.886249 19.870271 1.0 1.0 1.0 -0.33068179118632673 0.22516710813164312 0.9164874938554457 1
89 1 -6.396592 4.879518 20.130115 1.0 1.0 1.0 -0.29467675987071906 0.22516777495325946 0.9286899807334484 1
90 1 -6.054018 4.205642 20.386230 1.0 1.0 1.0 -0.2796359975434334 0.1936001135536075 0.9403843389327149 1
91 1 -5.279606 4.191082 20.603503 1.0 1.0 1.0 -0.24337369770784878 0.1936015384145459 0.9504144819958973 1
92 1 -4.919885 3.504709 20.819430 1.0 1.0 1.0 -0.2271541120086569 0.16116452449943586 0.9604306354133177 1
93 1 -4.140789 3.485355 20.991755 1.0 1.0 1.0 -0.19112030719654508 0.16116636744625196 0.9682450259006127 1
94 1 -3.770030 2.792160 21.164489 1.0 1.0 1.0 -0.17389343666803972 0.12826657599917707 0.9763753162412626 1
95 1 -2.994362 2.771195 21.291153 1.0 1.0 1.0 -0.13856246994651655 0.12826848923696116 0.982012034850484 1
96 1 -2.618950 2.077023 21.419322 1.0 1.0 1.0 -0.12053372836899692 0.09532186423769684 0.9881221394765523 1
97 1 -1.854482 2.057550 21.501266 1.0 1.0 1.0 -0.08633992023803878 0.09532354244413718 0.9916949331468775 1
98 1 -1.480664 1.368094 21.585136 1.0 1.0 1.0 -0.06773514202487546 0.06273017794360067 0.9957293182938997 1
99 1 -0.734406 1.352928 21.624780 1.0 1.0 1.0 -0.0350494898893259 0.06273139530426461 0.9974148110498852 1
100 1 -0.367927 0.673437 21.666111 1.0 1.0 1.0 -0.016100408639770327 0.030853545813934135 0.9993942343001283 1
101 1 -11.264182 6.060819 17.504112 1.0 1.0 1.0 -0.5196828601641946 0.2803775253661533 0.8070428539557947 1
102 1 -10.606076 6.100133 17.896844 1.0 1.0 1.0 -0.48882303533653493 0.28037392391616384 0.8261007825394128 1
103 1 -10.355614 5.483186 18.239369 1.0 1.0 1.0 -0.47789052731443643 0.2534362142211201 0.8410652348209362 1
104 1 -9.661378 5.508907 18.608587 1.0 1.0 1.0 -0.4452293573347449 0.2534337603284553 0.8588027413166944 1
105 1 -9.378503 4.866157 18.929263 1.0 1.0 1.0 -0.4328930913883252 0.22470384669097754 0.8729901217714532 1
106 1 -8.652371 4.879536 19.268472 1.0 1.0 1.0 -0.39871965319205094 0.22470253317529945 0.8891183328123508 1
107 1 -8.339723 4.214417 19.560694 1.0 1.0 1.0 -0.3849999345306261 0.19441181148323944 0.9022079017428405 1
108 1 -7.587378 4.217365 19.863967 1.0 1.0 1.0 -0.3496832146236552 0.1944115175566441 0.9164746648171946 1
109 1 -7.248930 3.534278 20.121693 1.0 1.0 1.0 -0.3346517281373444 0.16286512397344077 0.9281611779469149 1
110 1 -6.477315 3.529286 20.384112 1.0 1.0 1.0 -0.29862531508745377 0.16286562211696173 0.9403710492786207 1
111 1 -6.118222 2.833440 20.602316 1.0 1.0 1.0 -0.28240561595290237 0.13042950594844832 0.9503868749389932 1
112 1 -5.335204 2.823422 20.820360 1.0 1.0 1.0 -0.24614417123464363 0.13043049144745245 0.9604170624619215 1
113 1 -4.961513 2.120577 20.995409 1.0 1.0 1.0 -0.22890686469657737 0.09751120423133072 0.9685521216455718 1
114 1 -4.175435 2.108669 21.167213 1.0 1.0 1.0 -0.1928970548366796 0.09751234184272012 0.9763616488902478 1
115 1 -3.793697 1.404818 21.297122 1.0 1.0 1.0 -0.17484996887105592 0.06453198997099867 0.9824780458901734 1
116 1 -3.012879 1.394138 21.422566 1.0 1.0 1.0 -0.13955984956062742 0.06453296601332925 0.9881085692818059 1
117 1 -2.629711 0.695174 21.507072 1.0 1.0 1.0 -0.12093450822480503 0.0319028392136628 0.9921476974576576 1
118 1 -1.861964 0.688604 21.587698 1.0 1.0 1.0 -0.08678571379320736 0.03190340556843586 0.9957160300982101 1
119 1 -1.483633 -0.000000 21.628165 1.0 1.0 1.0 -0.06782211872456434 0.0 0.9976974291896873 1
120 1 -0.735853 -0.000000 21.666934 1.0 1.0 1.0 -0.03516849688100374 0.0 0.9993813970787784 1
121 1 -0.367927 -0.673437 21.666111 1.0 1.0 1.0 -0.016100408639770317 -0.030853545813934135 0.9993942343001283 1
122 1 -12.306519 5.366771 17.022424 1.0 1.0 1.0 -0.5674182532129203 0.2485007384408866 0.7850375207053051 1
123 1 -11.679988 5.411814 17.443940 1.0 1.0 1.0 -0.5386272823869716 0.24849679643892222 0.805065210295426 1
124 1 -11.441829 4.788245 17.780310 1.0 1.0 1.0 -0.5276831291614011 0.22153331116387254 0.8200448202648455 1
125 1 -10.775562 4.820303 18.183006 1.0 1.0 1.0 -0.4968501519013416 0.22153035476002214 0.8390853523185307 1
126 1 -10.503318 4.170983 18.499622 1.0 1.0 1.0 -0.4845129695736496 0.19280100747731765 0.8532730827997886 1
127 1 -9.800495 4.191115 18.876661 1.0 1.0 1.0 -0.4518524728317352 0.19279907303059113 0.8710096786112028 1
128 1 -9.496159 3.519379 19.166793 1.0 1.0 1.0 -0.43813769569845956 0.16252157877154277 0.8840939407334772 1
129 1 -8.761519 3.529301 19.511617 1.0 1.0 1.0 -0.4039517868895016 0.1625205980255935 0.9002277540079411 1
130 1 -8.428495 2.839476 19.768918 1.0 1.0 1.0 -0.3889260275657634 0.13098800785385184 0.9119093633033901 1
131 1 -7.668251 2.841506 20.075721 1.0 1.0 1.0 -0.3535959642747963 0.13098780438229668 0.9261814558452799 1
132 1 -7.311268 2.138773 20.294694 1.0 1.0 1.0 -0.3373787187053549 0.09855773623569199 0.9361954778745883 1
133 1 -6.532854 2.135700 20.558870 1.0 1.0 1.0 -0.30134709827942 0.0985580442735532 0.9484072112060019 1
134 1 -6.157737 1.425852 20.735303 1.0 1.0 1.0 -0.2841070977750957 0.06563406386499054 0.956543426434147 1
135 1 -5.369414 1.420746 20.953799 1.0 1.0 1.0 -0.24785220601819322 0.06563456768156158 0.9665719774011502 1
136 1 -4.982726 0.709874 21.085084 1.0 1.0 1.0 -0.2297984051660511 0.032641728661868326 0.9726907065111213 1
137 1 -4.193086 0.705854 21.256604 1.0 1.0 1.0 -0.19380398420830247 0.03264211330750494 0.9804970719710528 1
138 1 -3.801685 0.000000 21.341889 1.0 1.0 1.0 -0.1751722573408108 0.0 0.9845378003195838 1
139 1 -3.019127 -0.000000 21.466913 1.0 1.0 1.0 -0.13989701966876966 0.0 0.9901660587435805 1
140 1 -2.629711 -0.695174 21.507072 1.0 1.0 1.0 -0.12093450822480503 -0.03190283921366287 0.9921476974576576 1
141 1 -1.861964 -0.688604 21.587698 1.0 1.0 1.0 -0.08678571379320736 -0.03190340556843591 0.9957160300982101 1
142 1 -1.480664 -1.368094 21.585136 1.0 1.0 1.0 -0.06773514202487547 -0.06273017794360077 0.9957293182938997 1
143 1 -0.734406 -1.352928 21.624780 1.0 1.0 1.0 -0.03504948988932592 -0.0627313953042647 0.9974148110498852 1
144 1 -0.366480 -2.012580 21.583113 1.0 1.0 1.0 -0.016135556677911937 -0.09221070542744364 0.9956087733719844 1
145 1 -13.290787 4.660452 16.482201 1.0 1.0 1.0 -0.612481433377086 0.21598372500930463 0.7604061574576151 1
146 1 -12.700714 4.708003 16.927415 1.0 1.0 1.0 -0.5859780902914017 0.21597980868043576 0.7810137002260614 1
147 1 -12.474512 4.079976 17.254934 1.0 1.0 1.0 -0.5750024970714539 0.1889414439962673 0.7960359659602059 1
148 1 -11.842160 4.115174 17.686313 1.0 1.0 1.0 -0.5462853297282371 0.18893835359029496 0.8160114196911095 1
149 1 -11.580708 3.461648 17.996235 1.0 1.0 1.0 -0.5339311073806808 0.16017176685164594 0.8302183915542114 1
150 1 -10.908134 3.485398 18.406847 1.0 1.0 1.0 -0.5031361855964619 0.1601695671619698 0.8492347664212706 1
151 1 -10.612766 2.809599 18.692469 1.0 1.0 1.0 -0.48941488766537034 0.12987982151223737 0.8623249385790963 1
152 1 -9.903615 2.823447 19.075376 1.0 1.0 1.0 -0.4567678356856721 0.12987848471808655 0.880053818519277 1
153 1 -9.577095 2.129602 19.330191 1.0 1.0 1.0 -0.441741453992221 0.09834627919198335 0.8917356655388025 1
154 1 -8.836615 2.135710 19.678909 1.0 1.0 1.0 -0.4075560795935649 0.0983456729439745 0.9078690272277827 1
155 1 -8.483135 1.428929 19.897080 1.0 1.0 1.0 -0.3913398530066781 0.06591875081243913 0.917882257013414 1
156 1 -7.718031 1.429963 20.206062 1.0 1.0 1.0 -0.3560073240468432 0.065918646734905 0.9321553074663281 1
157 1 -7.343044 0.716018 20.382880 1.0 1.0 1.0 -0.3387673024637388 0.03299507524797931 0.9402914653397754 1
158 1 -6.561163 0.714980 20.647946 1.0 1.0 1.0 -0.30273603502600277 0.03299517949550708 0.9525031292477701 1
159 1 -6.171079 0.000000 20.780207 1.0 1.0 1.0 -0.28468107369621715 0.0 0.958622285511436 1
160 1 -5.380965 0.000000 20.998850 1.0 1.0 1.0 -0.24842943812373658 0.0 0.9686499957536389 1
161 1 -4.982726 -0.709874 21.085084 1.0 1.0 1.0 -0.22979840516605107 -0.032641728661868284 0.9726907065111213 1
162 1 -4.193086 -0.705854 21.256604 1.0 1.0 1.0 -0.1938039842083025 -0.032642113307504904 0.9804970719710528 1
163 1 -3.793697 -1.404818 21.297122 1.0 1.0 1.0 -0.17484996887105594 -0.06453198997099863 0.9824780458901734 1
164 1 -3.012879 -1.394138 21.422566 1.0 1.0 1.0 -0.1395598495606273 -0.0645329660133292 0.9881085692818059 1
165 1 -2.618950 -2.077023 21.419322 1.0 1.0 1.0 -0.12053372836899684 -0.09532186423769674 0.9881221394765523 1
166 1 -1.854482 -2.057550 21.501266 1.0 1.0 1.0 -0.08633992023803867 -0.0953235424441371 0.9916949331468776 1
167 1 -1.471861 -2.720037 21.457573 1.0 1.0 1.0 -0.06747560044227138 -0.12472742832532382 0.9898939902677995 1
168 1 -0.730116 -2.690233 21.499776 1.0 1.0 1.0 -0.03469832621728769 -0.12472982282739081 0.9915838327923497 1
169 1 -0.363637 -3.328966 21.419933 1.0 1.0 1.0 -0.01620140303522767 -0.15253760055478316 0.988164862235386 1
170 1 -14.208499 3.950333 15.892095 1.0 1.0 1.0 -0.6544911525969538 0.1832201478153956 0.7335337133403041 1
171 1 -13.658402 3.997262 16.355322 1.0 1.0 1.0 -0.6304111129239722 0.18321656308978568 0.7543298480847256 1
172 1 -13.443464 3.367105 16.671672 1.0 1.0 1.0 -0.6193885477128928 0.15606463863915312 0.7694164383014858 1
173 1 -12.849647 3.402268 17.126070 1.0 1.0 1.0 -0.592993775326092 0.1560617424889935 0.7899386779717823 1
174 1 -12.598798 2.747060 17.426954 1.0 1.0 1.0 -0.580609340161556 0.1272268966098691 0.804180396985766 1
175 1 -11.962211 2.771241 17.865740 1.0 1.0 1.0 -0.5519592470647019 0.12722476986174272 0.824108516831002 1
176 1 -11.676146 2.094088 18.144621 1.0 1.0 1.0 -0.5382214707735623 0.09690053213246533 0.8372143902673845 1
177 1 -10.999275 2.108697 18.560738 1.0 1.0 1.0 -0.5074614980477727 0.09689917571391993 0.8562087232357967 1
178 1 -10.680095 1.413702 18.811105 1.0 1.0 1.0 -0.49242817086756996 0.06535391974211013 0.86789593944802 1
179 1 -9.967067 1.420759 19.197652 1.0 1.0 1.0 -0.45979492562047214 0.06535323670073355 0.8856170621811678 1
180 1 -9.618345 0.712921 19.413469 1.0 1.0 1.0 -0.44357686485869346 0.03292367237069745 0.8956313955862418 1
181 1 -8.874893 0.714983 19.764180 1.0 1.0 1.0 -0.4093946459354774 0.03292346723939509 0.9117631650732012 1
182 1 -8.501585 -0.000000 19.940356 1.0 1.0 1.0 -0.3921544556763305 -1.5448339148223463e-15 0.9198993873751634 1
183 1 -7.734840 -0.000000 20.250074 1.0 1.0 1.0 -0.35682208977309066 -1.5688032432906058e-15 0.9341723589627154 1
184 1 -7.343044 -0.716018 20.382880 1.0 1.0 1.0 -0.3387673024637405 -0.032995075247979316 0.9402914653397747 1
185 1 -6.561163 -0.714980 20.647946 1.0 1.0 1.0 -0.3027360350260027 -0.032995179495507086 0.95250312924777 1
186 1 -6.157737 -1.425852 20.735303 1.0 1.0 1.0 -0.28410709777509674 -0.06563406386498886 0.9565434264341469 1
187 1 -5.369414 -1.420746 20.953799 1.0 1.0 1.0 -0.24785220601819238 -0.06563456768155988 0.9665719774011505 1
188 1 -4.961513 -2.120577 20.995409 1.0 1.0 1.0 -0.22890686469657542 -0.09751120423133089 0.9685521216455723 1
189 1 -4.175435 -2.108669 21.167213 1.0 1.0 1.0 -0.1928970548366797 -0.09751234184272024 0.9763616488902478 1
190 1 -3.770030 -2.792160 21.164489 1.0 1.0 1.0 -0.1738934366680397 -0.1282665759991774 0.9763753162412626 1
191 1 -2.994362 -2.771195 21.291153 1.0 1.0 1.0 -0.13856246994651666 -0.1282684892369615 0.9820120348504839 1
192 1 -2.597817 -3.433887 21.246989 1.0 1.0 1.0 -0.11974332379116971 -0.15760396576679592 0.9802155509794882 1
193 1 -1.839783 -3.402202 21.331464 1.0 1.0 1.0 -0.08546758300620788 -0.157606694545512 0.9837964332571625 1
194 1 -1.457532 -4.040609 21.249891 1.0 1.0 1.0 -0.06704768690618224 -0.18530078671476996 0.9803918737542748 1
195 1 -0.723130 -3.997176 21.296157 1.0 1.0 1.0 -0.03413186351542437 -0.18530427983097272 0.982088254572515 1
196 1 -0.359493 -4.608824 21.181944 1.0 1.0 1.0 -0.016289754555102377 -0.21121000784216792 0.9773049557245915 1
197 1 -15.053753 3.244537 15.261867 1.0 1.0 1.0 -0.6931834940800299 0.1505919503773643 0.7048536784443581 1
198 1 -14.545711 3.287994 15.737182 1.0 1.0 1.0 -0.6715789860265587 0.15058891388773385 0.725468568955025 1
199 1 -14.341090 2.658113 16.040509 1.0 1.0 1.0 -0.6605002342856305 0.12330025530115642 0.7406324915579231 1
200 1 -13.788940 2.690295 16.511772 1.0 1.0 1.0 -0.6365473723531387 0.12329780349998352 0.7613179982125695 1
201 1 -13.548215 2.035992 16.801668 1.0 1.0 1.0 -0.6241249099256796 0.09437609079747249 0.775603797241897 1
202 1 -12.951890 2.057593 17.262451 1.0 1.0 1.0 -0.5978130130578538 0.09437431249927246 0.7960609841959221 1
203 1 -12.675172 1.381849 17.532663 1.0 1.0 1.0 -0.5840529759295704 0.06400249137198238 0.8091883602758954 1
204 1 -12.036014 1.394163 17.976047 1.0 1.0 1.0 -0.5554494202421061 0.06400140750700889 0.8290836878083117 1
205 1 -11.724756 0.700933 18.220200 1.0 1.0 1.0 -0.5404056759642324 0.0324355890541729 0.8407791850113498 1
206 1 -11.045708 0.705864 18.639141 1.0 1.0 1.0 -0.5096662834187844 0.032435130669509225 0.8597605723947425 1
207 1 -10.702824 -0.000000 18.851154 1.0 1.0 1.0 -0.49344498971334816 -4.1793970910026735e-16 0.8697770071269956 1
208 1 -9.988489 -0.000000 19.238934 1.0 1.0 1.0 -0.4608173637787451 -3.90304651948989e-16 0.8874949899802295 1
209 1 -9.618345 -0.712921 19.413469 1.0 1.0 1.0 -0.44357686485869385 -0.032923672370697446 0.8956313955862417 1
210 1 -8.874893 -0.714983 19.764180 1.0 1.0 1.0 -0.40939464593547575 -0.03292346723939507 0.9117631650732019 1
211 1 -8.483135 -1.428929 19.897080 1.0 1.0 1.0 -0.3913398530066773 -0.06591875081243762 0.9178822570134145 1
212 1 -7.718031 -1.429963 20.206062 1.0 1.0 1.0 -0.35600732404684415 -0.06591864673490345 0.932155307466328 1
213 1 -7.311268 -2.138773 20.294694 1.0 1.0 1.0 -0.3373787187053551 -0.09855773623569153 0.9361954778745883 1
214 1 -6.532854 -2.135700 20.558870 1.0 1.0 1.0 -0.3013470982794217 -0.0985580442735528 0.9484072112060015 1
215 1 -6.118222 -2.833440 20.602316 1.0 1.0 1.0 -0.2824056159529019 -0.13042950594845126 0.950386874938993 1
216 1 -5.335204 -2.823422 20.820360 1.0 1.0 1.0 -0.24614417123464324 -0.13043049144745547 0.9604170624619213 1
217 1 -4.919885 -3.504709 20.819430 1.0 1.0 1.0 -0.22715411200865843 -0.1611645244994355 0.9604306354133175 1
218 1 -4.140789 -3.485355 20.991755 1.0 1.0 1.0 -0.1911203071965447 -0.16116636744625162 0.9682450259006127 1
219 1 -3.731549 -4.145614 20.948823 1.0 1.0 1.0 -0.17233278175817782 -0.19045458248064417 0.9664514805946607 1
220 1 -2.964244 -4.115112 21.077392 1.0 1.0 1.0 -0.13694568896022877 -0.19045735809727363 0.9720966376970014 1
221 1 -2.567053 -4.750739 20.996098 1.0 1.0 1.0 -0.11858483352335196 -0.21806485909438528 0.9687029237523674 1
222 1 -1.818375 -4.707921 21.084121 1.0 1.0 1.0 -0.08420502492385902 -0.21806854063721579 0.9722940015046514 1
223 1 -1.438156 -5.316339 20.968992 1.0 1.0 1.0 -0.06645844664666427 -0.2438377601974725 0.9675362636982618 1
224 1 -0.713676 -5.260674 21.020549 1.0 1.0 1.0 -0.033375974230569906 -0.24384223912473765 0.9692404277385434 1
225 1 -0.354183 -5.840297 20.876603 1.0 1.0 1.0 -0.016389912259888742 -0.26768948655526653 0.9633658233318696 1
226 1 -15.823275 2.550446 14.601759 1.0 1.0 1.0 -0.728413831915522 0.1184498296659798 0.6748206630848274 1
227 1 -15.357986 2.588003 15.083330 1.0 1.0 1.0 -0.7092603446676587 0.11844745959325349 0.6949244295589402 1
228 1 -15.162584 1.960786 15.372293 1.0 1.0 1.0 -0.6981236177550975 0.0910171539928244 0.7101684955076373 1
229 1 -14.653730 1.987439 15.854159 1.0 1.0 1.0 -0.6766473331282451 0.09101530007158357 0.7306603874053345 1
230 1 -14.422444 1.336590 16.131574 1.0 1.0 1.0 -0.664185912124505 0.06200409975670858 0.7449916548181594 1
231 1 -13.869079 1.352961 16.607821 1.0 1.0 1.0 -0.6403160733155474 0.06200285499819276 0.7656049713957136 1
232 1 -13.601514 0.681332 16.867813 1.0 1.0 1.0 -0.6265340903601427 0.03158377365727599 0.7787538114565824 1
233 1 -13.003933 0.688618 17.331872 1.0 1.0 1.0 -0.6002670055615353 0.03158317401568813 0.799175841197219 1
234 1 -12.700939 -0.000000 17.568327 1.0 1.0 1.0 -0.5852145019203232 -2.4151937131743536e-15 0.8108785277352878 1
235 1 -12.060920 -0.000000 18.013271 1.0 1.0 1.0 -0.5566275671368536 -2.400137278637241e-15 0.8307621509814391 1
236 1 -11.724756 -0.700933 18.220200 1.0 1.0 1.0 -0.5404056759642342 -0.03243558905417437 0.8407791850113489 1
237 1 -11.045708 -0.705864 18.639141 1.0 1.0 1.0 -0.5096662834187847 -0.03243513066951072 0.8597605723947422 1
238 1 -10.680095 -1.413702 18.811105 1.0 1.0 1.0 -0.4924281708675715 -0.06535391974210931 0.8678959394480191 1
239 1 -9.967067 -1.420759 19.197652 1.0 1.0 1.0 -0.4597949256204721 -0.06535323670073279 0.8856170621811679 1
240 1 -9.577095 -2.129602 19.330191 1.0 1.0 1.0 -0.44174145399222037 -0.09834627919198385 0.8917356655388027 1
241 1 -8.836615 -2.135710 19.678909 1.0 1.0 1.0 -0.407556079593565 -0.09834567294397498 0.9078690272277826 1
242 1 -8.428495 -2.839476 19.768918 1.0 1.0 1.0 -0.38892602756576355 -0.13098800785385217 0.91190936330339 1
243 1 -7.668251 -2.841506 20.075721 1.0 1.0 1.0 -0.3535959642747969 -0.13098780438229699 0.9261814558452796 1
244 1 -7.248930 -3.534278 20.121693 1.0 1.0 1.0 -0.33465172813734484 -0.16286512397344152 0.9281611779469146 1
245 1 -6.477315 -3.529286 20.384112 1.0 1.0 1.0 -0.29862531508745227 -0.16286562211696243 0.940371049278621 1
246 1 -6.054018 -4.205642 20.386230 1.0 1.0 1.0 -0.279635997543433 -0.19360011355360648 0.9403843389327152 1
247 1 -5.279606 -4.191082 20.603503 1.0 1.0 1.0 -0.2433736977078499 -0.19360153841454478 0.9504144819958971 1
248 1 -4.859358 -4.846364 20.563545 1.0 1.0 1.0 -0.22459803741959253 -0.22287323196427164 0.9486217602717466 1
249 1 -4.090396 -4.820250 20.736540 1.0 1.0 1.0 -0.1885438902025402 -0.22287570523016392 0.9564400773103612 1
250 1 -3.679599 -5.450749 20.657648 1.0 1.0 1.0 -0.17021541461652867 -0.25043667765361943 0.9530520358893004 1
251 1 -2.923561 -5.411741 20.788636 1.0 1.0 1.0 -0.13477257387861435 -0.2504402104453958 0.9587054053890587 1
252 1 -2.527682 -6.014777 20.674969 1.0 1.0 1.0 -0.11708872271408696 -0.27612055844846817 0.9539641860234008 1
253 1 -1.790956 -5.962193 20.767301 1.0 1.0 1.0 -0.08260174406150822 -0.27612506483861227 0.9575656115618758 1
254 1 -1.414341 -6.536095 20.623655 1.0 1.0 1.0 -0.06571776133313785 -0.29983115996043286 0.9517260379763401 1
255 1 -0.702048 -6.469865 20.681400 1.0 1.0 1.0 -0.03246270708945019 -0.29983648393571316 0.9534381236081834 1
256 1 -0.347865 -7.013884 20.512840 1.0 1.0 1.0 -0.016490153362145613 -0.3215432010758628 0.9467513108963621 1
257 1 -16.516262 1.874411 13.921895 1.0 1.0 1.0 -0.7601489613696243 0.08709854977561889 0.6438846163371706 1
258 1 -16.093199 1.904150 14.404274 1.0 1.0 1.0 -0.7433571865099682 0.08709687435669312 0.6631999907579001 1
259 1 -15.905866 1.281875 14.678040 1.0 1.0 1.0 -0.732168232863282 0.05953857165675612 0.6785166448002085 1
260 1 -15.440541 1.300954 15.164489 1.0 1.0 1.0 -0.7131274660394857 0.0595373740890949 0.6985016236678891 1
261 1 -15.217891 0.655978 15.428411 1.0 1.0 1.0 -0.7006335248290574 0.030451212333325088 0.7128712278897512 1
262 1 -14.708648 0.664961 15.913632 1.0 1.0 1.0 -0.679224830184654 0.03045058900926123 0.7332982965271481 1
263 1 -14.449871 -0.000000 16.162275 1.0 1.0 1.0 -0.665428215524184 -1.3332231099317853e-15 0.7464618476414586 1
264 1 -13.896103 -0.000000 16.640210 1.0 1.0 1.0 -0.6415872268416226 -1.3699948641939604e-15 0.7670500833411573 1
265 1 -13.601514 -0.681332 16.867813 1.0 1.0 1.0 -0.6265340903601442 -0.03158377365727597 0.7787538114565813 1
266 1 -13.003933 -0.688618 17.331872 1.0 1.0 1.0 -0.600267005561533 -0.03158317401568811 0.7991758411972207 1
267 1 -12.675172 -1.381849 17.532663 1.0 1.0 1.0 -0.5840529759295687 -0.06400249137198101 0.8091883602758966 1
268 1 -12.036014 -1.394163 17.976047 1.0 1.0 1.0 -0.5554494202421063 -0.06400140750700747 0.8290836878083115 1
269 1 -11.676146 -2.094088 18.144621 1.0 1.0 1.0 -0.5382214707735614 -0.09690053213246583 0.8372143902673851 1
270 1 -10.999275 -2.108697 18.560738 1.0 1.0 1.0 -0.507461498047775 -0.09689917571392051 0.8562087232357954 1
271 1 -10.612766 -2.809599 18.692469 1.0 1.0 1.0 -0.48941488766537256 -0.1298798215122379 0.8623249385790951 1
272 1 -9.903615 -2.823447 19.075376 1.0 1.0 1.0 -0.4567678356856715 -0.12987848471808708 0.8800538185192772 1
273 1 -9.496159 -3.519379 19.166793 1.0 1.0 1.0 -0.4381376956984597 -0.16252157877154233 0.8840939407334775 1
274 1 -8.761519 -3.529301 19.511617 1.0 1.0 1.0 -0.40395178688950145 -0.16252059802559302 0.9002277540079413 1
275 1 -8.339723 -4.214417 19.560694 1.0 1.0 1.0 -0.3849999345306278 -0.19441181148323583 0.9022079017428405 1